 BEGIN_INFO
   #
   # this is a Band-XCRYSDEN-Structure-File
   # aimed at Visualization of Fermi Surface
   #
   # Case:   copper_fs.bxsf
   #
 Fermi Energy:         13.3640
 END_INFO
 BEGIN_BLOCK_BANDGRID_3D
 band_energies
 BANDGRID_3D_BANDS
    1
   31   31   31
  0.000000  0.000000  0.000000
 -1.000000 -1.000000  1.000000
  1.000000  1.000000  1.000000
 -1.000000  1.000000 -1.000000
BAND:   6
   11.0564   11.0527   11.0428   11.0303   11.0218   11.0266
   11.0546   11.1112   11.1933   11.2915   11.3949   11.4936
   11.5794   11.6456   11.9710   12.1756   11.9710   11.6456
   11.5794   11.4936   11.3949   11.2915   11.1933   11.1112
   11.0546   11.0266   11.0218   11.0303   11.0428   11.0527
   11.0564   11.0527   11.0630   11.0664   11.0658   11.0665
   11.0765   11.1045   11.1567   11.2319   11.3230   11.4200
   11.5131   11.6295   11.8461   12.1728   12.4323   12.3778
   12.0786   11.8176   11.6601   11.5373   11.4230   11.3153
   11.2200   11.1449   11.0953   11.0698   11.0611   11.0599
   11.0587   11.0527   11.0428   11.0664   11.0826   11.0933
   11.1030   11.1185   11.1476   11.1969   11.2671   11.3525
   11.4443   11.5326   11.7667   12.0813   12.4786   12.8298
   12.9005   12.6425   12.2798   11.9890   11.7827   11.6215
   11.4830   11.3614   11.2590   11.1802   11.1267   11.0943
   11.0749   11.0599   11.0428   11.0303   11.0658   11.0933
   11.1143   11.1323   11.1530   11.1837   11.2311   11.2973
   11.3785   11.4662   11.6070   11.9074   12.2932   12.7629
   13.2213   13.4390   13.2530   12.8406   12.4364   12.1234
   11.8879   11.6992   11.5394   11.4024   11.2889   11.2011
   11.1381   11.0943   11.0611   11.0303   11.0218   11.0665
   11.1030   11.1323   11.1570   11.1818   11.2135   11.2590
   11.3220   11.3998   11.4846   11.6788   12.0314   12.4756
   13.0122   13.5761   13.9646   13.9009   13.4708   12.9719
   12.5484   12.2209   11.9651   11.7554   11.5772   11.4254
   11.2999   11.2011   11.1267   11.0698   11.0218   11.0266
   11.0765   11.1185   11.1530   11.1818   11.2087   11.2398
   11.2822   11.3411   11.4157   11.4986   11.7356   12.1319
   12.6260   13.2216   13.8784   14.4441   14.5711   14.1631
   13.5844   13.0526   12.6224   12.2841   12.0117   11.7844
   11.5904   11.4254   11.2889   11.1802   11.0953   11.0266
   11.0546   11.1045   11.1476   11.1837   11.2135   11.2398
   11.2675   11.3039   11.3563   11.4264   11.5074   11.7721
   12.2060   12.7442   13.3910   14.1229   14.8444   15.2314
   14.9135   14.2707   13.6360   13.0979   12.6641   12.3150
   12.0273   11.7844   11.5772   11.4024   11.2590   11.1449
   11.0546   11.1112   11.1567   11.1969   11.2311   11.2590
   11.2822   11.3039   11.3307   11.3717   11.4332   11.5110
   11.7860   12.2539   12.8323   13.5235   14.3129   15.1487
   15.8183   15.7142   15.0310   14.3012   13.6562   13.1181
   12.6776   12.3150   12.0117   11.7554   11.5394   11.3614
   11.2200   11.1112   11.1933   11.2319   11.2671   11.2973
   11.3220   11.3411   11.3563   11.3717   11.3957   11.4406
   11.5102   11.7769   12.2778   12.8950   13.6252   14.4568
   15.3632   16.2483   16.5397   15.8660   15.0513   14.3056
   13.6613   13.1181   12.6641   12.2841   11.9651   11.6992
   11.4830   11.3153   11.1933   11.2915   11.3230   11.3525
   11.3785   11.3998   11.4157   11.4264   11.4332   11.4406
   11.4597   11.5085   11.7467   12.2847   12.9411   13.7047
   14.5642   15.5045   16.4912   17.2741   16.7761   15.8874
   15.0509   14.3056   13.6562   13.0979   12.6224   12.2209
   11.8879   11.6215   11.4230   11.2915   11.3949   11.4200
   11.4443   11.4662   11.4846   11.4986   11.5074   11.5110
   11.5102   11.5085   11.5197   11.7070   12.2955   12.9888
   13.7747   14.6435   15.5838   16.5780   17.5779   17.7585
   16.8054   15.8874   15.0513   14.3012   13.6360   13.0526
   12.5484   12.1234   11.7827   11.5373   11.3949   11.4936
   11.5131   11.5326   11.6070   11.6788   11.7356   11.7721
   11.7860   11.7769   11.7467   11.7070   11.8231   12.3809
   13.0763   13.8550   14.7013   15.5989   16.5216   17.4199
   18.1943   17.7585   16.7761   15.8660   15.0310   14.2707
   13.5844   12.9719   12.4364   11.9890   11.6601   11.4936
   11.5794   11.6295   11.7667   11.9074   12.0314   12.1319
   12.2060   12.2539   12.2778   12.2847   12.2955   12.3809
   12.7026   13.2743   13.9752   14.7424   15.5350   16.3020
   16.9641   17.4199   17.5779   17.2741   16.5397   15.7142
   14.9135   14.1631   13.4708   12.8406   12.2798   11.8176
   11.5794   11.6456   11.8461   12.0813   12.2932   12.4756
   12.6260   12.7442   12.8323   12.8950   12.9411   12.9888
   13.0763   13.2743   13.6460   14.1693   14.7699   15.3739
   15.9077   16.3020   16.5216   16.5780   16.4912   16.2483
   15.8183   15.2314   14.5711   13.9009   13.2530   12.6425
   12.0786   11.6456   11.9710   12.1728   12.4786   12.7629
   13.0122   13.2216   13.3910   13.5235   13.6252   13.7047
   13.7747   13.8550   13.9752   14.1693   14.4500   14.7858
   15.1137   15.3739   15.5350   15.5989   15.5838   15.5045
   15.3632   15.1487   14.8444   14.4441   13.9646   13.4390
   12.9005   12.3778   11.9710   12.1756   12.4323   12.8298
   13.2213   13.5761   13.8784   14.1229   14.3129   14.4568
   14.5642   14.6435   14.7013   14.7424   14.7699   14.7858
   14.7910   14.7858   14.7699   14.7424   14.7013   14.6435
   14.5642   14.4568   14.3129   14.1229   13.8784   13.5761
   13.2213   12.8298   12.4323   12.1756   11.9710   12.3778
   12.9005   13.4390   13.9646   14.4441   14.8444   15.1487
   15.3632   15.5045   15.5838   15.5989   15.5350   15.3739
   15.1137   14.7858   14.4500   14.1693   13.9752   13.8550
   13.7747   13.7047   13.6252   13.5235   13.3910   13.2216
   13.0122   12.7629   12.4786   12.1728   11.9710   11.6456
   12.0786   12.6425   13.2530   13.9009   14.5711   15.2314
   15.8183   16.2483   16.4912   16.5780   16.5216   16.3020
   15.9077   15.3739   14.7699   14.1693   13.6460   13.2743
   13.0763   12.9888   12.9411   12.8950   12.8323   12.7442
   12.6260   12.4756   12.2932   12.0813   11.8461   11.6456
   11.5794   11.8176   12.2798   12.8406   13.4708   14.1631
   14.9135   15.7142   16.5397   17.2741   17.5779   17.4199
   16.9641   16.3020   15.5350   14.7424   13.9752   13.2743
   12.7026   12.3809   12.2955   12.2847   12.2778   12.2539
   12.2060   12.1319   12.0314   11.9074   11.7667   11.6295
   11.5794   11.4936   11.6601   11.9890   12.4364   12.9719
   13.5844   14.2707   15.0310   15.8660   16.7761   17.7585
   18.1943   17.4199   16.5216   15.5989   14.7013   13.8550
   13.0763   12.3809   11.8231   11.7070   11.7467   11.7769
   11.7860   11.7721   11.7356   11.6788   11.6070   11.5326
   11.5131   11.4936   11.3949   11.5373   11.7827   12.1234
   12.5484   13.0526   13.6360   14.3012   15.0513   15.8874
   16.8054   17.7585   17.5779   16.5780   15.5838   14.6435
   13.7747   12.9888   12.2955   11.7070   11.5197   11.5085
   11.5102   11.5110   11.5074   11.4986   11.4846   11.4662
   11.4443   11.4200   11.3949   11.2915   11.4230   11.6215
   11.8879   12.2209   12.6224   13.0979   13.6562   14.3056
   15.0509   15.8874   16.7761   17.2741   16.4912   15.5045
   14.5642   13.7047   12.9411   12.2847   11.7467   11.5085
   11.4597   11.4406   11.4332   11.4264   11.4157   11.3998
   11.3785   11.3525   11.3230   11.2915   11.1933   11.3153
   11.4830   11.6992   11.9651   12.2841   12.6641   13.1181
   13.6613   14.3056   15.0513   15.8660   16.5397   16.2483
   15.3632   14.4568   13.6252   12.8950   12.2778   11.7769
   11.5102   11.4406   11.3957   11.3717   11.3563   11.3411
   11.3220   11.2973   11.2671   11.2319   11.1933   11.1112
   11.2200   11.3614   11.5394   11.7554   12.0117   12.3150
   12.6776   13.1181   13.6562   14.3012   15.0310   15.7142
   15.8183   15.1487   14.3129   13.5235   12.8323   12.2539
   11.7860   11.5110   11.4332   11.3717   11.3307   11.3039
   11.2822   11.2590   11.2311   11.1969   11.1567   11.1112
   11.0546   11.1449   11.2590   11.4024   11.5772   11.7844
   12.0273   12.3150   12.6641   13.0979   13.6360   14.2707
   14.9135   15.2314   14.8444   14.1229   13.3910   12.7442
   12.2060   11.7721   11.5074   11.4264   11.3563   11.3039
   11.2675   11.2398   11.2135   11.1837   11.1476   11.1045
   11.0546   11.0266   11.0953   11.1802   11.2889   11.4254
   11.5904   11.7844   12.0117   12.2841   12.6224   13.0526
   13.5844   14.1631   14.5711   14.4441   13.8784   13.2216
   12.6260   12.1319   11.7356   11.4986   11.4157   11.3411
   11.2822   11.2398   11.2087   11.1818   11.1530   11.1185
   11.0765   11.0266   11.0218   11.0698   11.1267   11.2011
   11.2999   11.4254   11.5772   11.7554   11.9651   12.2209
   12.5484   12.9719   13.4708   13.9009   13.9646   13.5761
   13.0122   12.4756   12.0314   11.6788   11.4846   11.3998
   11.3220   11.2590   11.2135   11.1818   11.1570   11.1323
   11.1030   11.0665   11.0218   11.0303   11.0611   11.0943
   11.1381   11.2011   11.2889   11.4024   11.5394   11.6992
   11.8879   12.1234   12.4364   12.8406   13.2530   13.4390
   13.2213   12.7629   12.2932   11.9074   11.6070   11.4662
   11.3785   11.2973   11.2311   11.1837   11.1530   11.1323
   11.1143   11.0933   11.0658   11.0303   11.0428   11.0599
   11.0749   11.0943   11.1267   11.1802   11.2590   11.3614
   11.4830   11.6215   11.7827   11.9890   12.2798   12.6425
   12.9005   12.8298   12.4786   12.0813   11.7667   11.5326
   11.4443   11.3525   11.2671   11.1969   11.1476   11.1185
   11.1030   11.0933   11.0826   11.0664   11.0428   11.0527
   11.0587   11.0599   11.0611   11.0698   11.0953   11.1449
   11.2200   11.3153   11.4230   11.5373   11.6601   11.8176
   12.0786   12.3778   12.4323   12.1728   11.8461   11.6295
   11.5131   11.4200   11.3230   11.2319   11.1567   11.1045
   11.0765   11.0665   11.0658   11.0664   11.0630   11.0527
   11.0564   11.0527   11.0428   11.0303   11.0218   11.0266
   11.0546   11.1112   11.1933   11.2915   11.3949   11.4936
   11.5794   11.6456   11.9710   12.1756   11.9710   11.6456
   11.5794   11.4936   11.3949   11.2915   11.1933   11.1112
   11.0546   11.0266   11.0218   11.0303   11.0428   11.0527
   11.0564   11.0527   11.0630   11.0664   11.0658   11.0665
   11.0765   11.1045   11.1567   11.2319   11.3230   11.4200
   11.5131   11.6295   11.8461   12.1728   12.4323   12.3778
   12.0786   11.8176   11.6601   11.5373   11.4230   11.3153
   11.2200   11.1449   11.0953   11.0698   11.0611   11.0599
   11.0587   11.0527   11.0630   11.0527   11.0587   11.0599
   11.0611   11.0698   11.0953   11.1449   11.2200   11.3153
   11.4230   11.5373   11.6601   11.8176   12.0786   12.3778
   12.4323   12.1728   11.8461   11.6295   11.5131   11.4200
   11.3230   11.2319   11.1567   11.1045   11.0765   11.0665
   11.0658   11.0664   11.0630   11.0664   11.0587   11.0664
   11.0755   11.0838   11.0973   11.1243   11.1728   11.2458
   11.3406   11.4517   11.5775   11.7294   11.9428   12.2589
   12.6165   12.7875   12.6165   12.2589   11.9428   11.7294
   11.5775   11.4517   11.3406   11.2458   11.1728   11.1243
   11.0973   11.0838   11.0755   11.0664   11.0658   11.0599
   11.0755   11.0933   11.1094   11.1280   11.1568   11.2038
   11.2737   11.3661   11.4792   11.6187   11.8108   12.0929
   12.4815   12.9218   13.2243   13.1650   12.8071   12.3997
   12.0765   11.8420   11.6616   11.5116   11.3837   11.2782
   11.1979   11.1427   11.1074   11.0838   11.0658   11.0665
   11.0611   11.0838   11.1094   11.1323   11.1556   11.1858
   11.2310   11.2975   11.3872   11.5018   11.6571   11.8934
   12.2382   12.6928   13.2169   13.6608   13.7519   13.4252
   12.9475   12.5168   12.1845   11.9316   11.7293   11.5597
   11.4161   11.2984   11.2078   11.1427   11.0973   11.0665
   11.0765   11.0698   11.0973   11.1280   11.1556   11.1818
   11.2121   11.2543   11.3163   11.4024   11.5176   11.6886
   11.9669   12.3652   12.8775   13.4775   14.0588   14.3453
   14.0989   13.5700   13.0385   12.6009   12.2607   11.9925
   11.7721   11.5855   11.4277   11.2984   11.1979   11.1243
   11.0765   11.1045   11.0953   11.1243   11.1568   11.1858
   11.2121   11.2398   11.2765   11.3314   11.4117   11.5253
   11.7092   12.0241   12.4682   13.0309   13.6953   14.3944
   14.9052   14.8175   14.2621   13.6378   13.0927   12.6539
   12.3057   12.0231   11.7866   11.5855   11.4161   11.2782
   11.1728   11.1045   11.1567   11.1449   11.1728   11.2038
   11.2310   11.2543   11.2765   11.3039   11.3468   11.4166
   11.5248   11.7163   12.0617   12.5461   13.1532   13.8706
   14.6592   15.3795   15.5605   15.0222   14.3147   13.6650
   13.1208   12.6794   12.3206   12.0231   11.7721   11.5597
   11.3837   11.2458   11.1567   11.2319   11.2200   11.2458
   11.2737   11.2975   11.3163   11.3314   11.3468   11.3717
   11.4218   11.5170   11.7086   12.0792   12.6006   13.2479
   14.0084   14.8586   15.7292   16.2734   15.8490   15.0709
   14.3234   13.6737   13.1295   12.6794   12.3057   11.9925
   11.7293   11.5116   11.3406   11.2319   11.3230   11.3153
   11.3406   11.3661   11.3872   11.4024   11.4117   11.4166
   11.4218   11.4406   11.5056   11.6875   12.0804   12.6380
   13.3222   14.1165   15.0046   15.9556   16.8247   16.7364
   15.9080   15.0723   14.3230   13.6737   13.1208   12.6539
   12.2607   11.9316   11.6616   11.4517   11.3230   11.4200
   11.4230   11.4517   11.4792   11.5018   11.5176   11.5253
   11.5248   11.5170   11.5056   11.5085   11.6584   12.0786
   12.6727   13.3880   14.2045   15.1081   16.0824   17.0872
   17.6441   16.8258   15.9112   15.0723   14.3234   13.6650
   13.0927   12.6009   12.1845   11.8420   11.5775   11.4200
   11.5131   11.5373   11.5775   11.6187   11.6571   11.6886
   11.7092   11.7163   11.7086   11.6875   11.6584   11.7070
   12.1256   12.7388   13.4670   14.2839   15.1739   16.1202
   17.0958   18.0396   17.8182   16.8258   15.9080   15.0709
   14.3147   13.6378   13.0385   12.5168   12.0765   11.7294
   11.5131   11.6295   11.6601   11.7294   11.8108   11.8934
   11.9669   12.0241   12.0617   12.0792   12.0804   12.0786
   12.1256   12.3809   12.9107   13.5952   14.3688   15.1996
   16.0556   16.8859   17.5996   18.0396   17.6441   16.7364
   15.8490   15.0222   14.2621   13.5700   12.9475   12.3997
   11.9428   11.6295   11.8461   11.8176   11.9428   12.0929
   12.2382   12.3652   12.4682   12.5461   12.6006   12.6380
   12.6727   12.7388   12.9107   13.2743   13.8202   14.4756
   15.1766   15.8629   16.4598   16.8859   17.0958   17.0872
   16.8247   16.2734   15.5605   14.8175   14.0989   13.4252
   12.8071   12.2589   11.8461   12.1728   12.0786   12.2589
   12.4815   12.6928   12.8775   13.0309   13.1532   13.2479
   13.3222   13.3880   13.4670   13.5952   13.8202   14.1693
   14.6161   15.0954   15.5325   15.8629   16.0556   16.1202
   16.0824   15.9556   15.7292   15.3795   14.9052   14.3453
   13.7519   13.1650   12.6165   12.1728   12.4323   12.3778
   12.6165   12.9218   13.2169   13.4775   13.6953   13.8706
   14.0084   14.1165   14.2045   14.2839   14.3688   14.4756
   14.6161   14.7858   14.9575   15.0954   15.1766   15.1996
   15.1739   15.1081   15.0046   14.8586   14.6592   14.3944
   14.0588   13.6608   13.2243   12.7875   12.4323   12.3778
   12.4323   12.7875   13.2243   13.6608   14.0588   14.3944
   14.6592   14.8586   15.0046   15.1081   15.1739   15.1996
   15.1766   15.0954   14.9575   14.7858   14.6161   14.4756
   14.3688   14.2839   14.2045   14.1165   14.0084   13.8706
   13.6953   13.4775   13.2169   12.9218   12.6165   12.3778
   12.0786   12.1728   12.6165   13.1650   13.7519   14.3453
   14.9052   15.3795   15.7292   15.9556   16.0824   16.1202
   16.0556   15.8629   15.5325   15.0954   14.6161   14.1693
   13.8202   13.5952   13.4670   13.3880   13.3222   13.2479
   13.1532   13.0309   12.8775   12.6928   12.4815   12.2589
   12.0786   11.8176   11.8461   12.2589   12.8071   13.4252
   14.0989   14.8175   15.5605   16.2734   16.8247   17.0872
   17.0958   16.8859   16.4598   15.8629   15.1766   14.4756
   13.8202   13.2743   12.9107   12.7388   12.6727   12.6380
   12.6006   12.5461   12.4682   12.3652   12.2382   12.0929
   11.9428   11.8176   11.6601   11.6295   11.9428   12.3997
   12.9475   13.5700   14.2621   15.0222   15.8490   16.7364
   17.6441   18.0396   17.5996   16.8859   16.0556   15.1996
   14.3688   13.5952   12.9107   12.3809   12.1256   12.0786
   12.0804   12.0792   12.0617   12.0241   11.9669   11.8934
   11.8108   11.7294   11.6601   11.5373   11.5131   11.7294
   12.0765   12.5168   13.0385   13.6378   14.3147   15.0709
   15.9080   16.8258   17.8182   18.0396   17.0958   16.1202
   15.1739   14.2839   13.4670   12.7388   12.1256   11.7070
   11.6584   11.6875   11.7086   11.7163   11.7092   11.6886
   11.6571   11.6187   11.5775   11.5373   11.4230   11.4200
   11.5775   11.8420   12.1845   12.6009   13.0927   13.6650
   14.3234   15.0723   15.9112   16.8258   17.6441   17.0872
   16.0824   15.1081   14.2045   13.3880   12.6727   12.0786
   11.6584   11.5085   11.5056   11.5170   11.5248   11.5253
   11.5176   11.5018   11.4792   11.4517   11.4230   11.3153
   11.3230   11.4517   11.6616   11.9316   12.2607   12.6539
   13.1208   13.6737   14.3230   15.0723   15.9080   16.7364
   16.8247   15.9556   15.0046   14.1165   13.3222   12.6380
   12.0804   11.6875   11.5056   11.4406   11.4218   11.4166
   11.4117   11.4024   11.3872   11.3661   11.3406   11.3153
   11.2200   11.2319   11.3406   11.5116   11.7293   11.9925
   12.3057   12.6794   13.1295   13.6737   14.3234   15.0709
   15.8490   16.2734   15.7292   14.8586   14.0084   13.2479
   12.6006   12.0792   11.7086   11.5170   11.4218   11.3717
   11.3468   11.3314   11.3163   11.2975   11.2737   11.2458
   11.2200   11.1449   11.1567   11.2458   11.3837   11.5597
   11.7721   12.0231   12.3206   12.6794   13.1208   13.6650
   14.3147   15.0222   15.5605   15.3795   14.6592   13.8706
   13.1532   12.5461   12.0617   11.7163   11.5248   11.4166
   11.3468   11.3039   11.2765   11.2543   11.2310   11.2038
   11.1728   11.1449   11.0953   11.1045   11.1728   11.2782
   11.4161   11.5855   11.7866   12.0231   12.3057   12.6539
   13.0927   13.6378   14.2621   14.8175   14.9052   14.3944
   13.6953   13.0309   12.4682   12.0241   11.7092   11.5253
   11.4117   11.3314   11.2765   11.2398   11.2121   11.1858
   11.1568   11.1243   11.0953   11.0698   11.0765   11.1243
   11.1979   11.2984   11.4277   11.5855   11.7721   11.9925
   12.2607   12.6009   13.0385   13.5700   14.0989   14.3453
   14.0588   13.4775   12.8775   12.3652   11.9669   11.6886
   11.5176   11.4024   11.3163   11.2543   11.2121   11.1818
   11.1556   11.1280   11.0973   11.0698   11.0611   11.0665
   11.0973   11.1427   11.2078   11.2984   11.4161   11.5597
   11.7293   11.9316   12.1845   12.5168   12.9475   13.4252
   13.7519   13.6608   13.2169   12.6928   12.2382   11.8934
   11.6571   11.5018   11.3872   11.2975   11.2310   11.1858
   11.1556   11.1323   11.1094   11.0838   11.0611   11.0599
   11.0658   11.0838   11.1074   11.1427   11.1979   11.2782
   11.3837   11.5116   11.6616   11.8420   12.0765   12.3997
   12.8071   13.1650   13.2243   12.9218   12.4815   12.0929
   11.8108   11.6187   11.4792   11.3661   11.2737   11.2038
   11.1568   11.1280   11.1094   11.0933   11.0755   11.0599
   11.0587   11.0664   11.0755   11.0838   11.0973   11.1243
   11.1728   11.2458   11.3406   11.4517   11.5775   11.7294
   11.9428   12.2589   12.6165   12.7875   12.6165   12.2589
   11.9428   11.7294   11.5775   11.4517   11.3406   11.2458
   11.1728   11.1243   11.0973   11.0838   11.0755   11.0664
   11.0587   11.0527   11.0630   11.0664   11.0658   11.0665
   11.0765   11.1045   11.1567   11.2319   11.3230   11.4200
   11.5131   11.6295   11.8461   12.1728   12.4323   12.3778
   12.0786   11.8176   11.6601   11.5373   11.4230   11.3153
   11.2200   11.1449   11.0953   11.0698   11.0611   11.0599
   11.0587   11.0527   11.0428   11.0664   11.0826   11.0933
   11.1030   11.1185   11.1476   11.1969   11.2671   11.3525
   11.4443   11.5326   11.7667   12.0813   12.4786   12.8298
   12.9005   12.6425   12.2798   11.9890   11.7827   11.6215
   11.4830   11.3614   11.2590   11.1802   11.1267   11.0943
   11.0749   11.0599   11.0428   11.0664   11.0587   11.0664
   11.0755   11.0838   11.0973   11.1243   11.1728   11.2458
   11.3406   11.4517   11.5775   11.7294   11.9428   12.2589
   12.6165   12.7875   12.6165   12.2589   11.9428   11.7294
   11.5775   11.4517   11.3406   11.2458   11.1728   11.1243
   11.0973   11.0838   11.0755   11.0664   11.0826   11.0664
   11.0428   11.0599   11.0749   11.0943   11.1267   11.1802
   11.2590   11.3614   11.4830   11.6215   11.7827   11.9890
   12.2798   12.6425   12.9005   12.8298   12.4786   12.0813
   11.7667   11.5326   11.4443   11.3525   11.2671   11.1969
   11.1476   11.1185   11.1030   11.0933   11.0826   11.0933
   11.0755   11.0599   11.0658   11.0838   11.1074   11.1427
   11.1979   11.2782   11.3837   11.5116   11.6616   11.8420
   12.0765   12.3997   12.8071   13.1650   13.2243   12.9218
   12.4815   12.0929   11.8108   11.6187   11.4792   11.3661
   11.2737   11.2038   11.1568   11.1280   11.1094   11.0933
   11.1030   11.0838   11.0749   11.0838   11.1030   11.1280
   11.1633   11.2169   11.2955   11.4014   11.5338   11.6953
   11.8988   12.1712   12.5430   13.0117   13.4778   13.6953
   13.4778   13.0117   12.5430   12.1712   11.8988   11.6953
   11.5338   11.4014   11.2955   11.2169   11.1633   11.1280
   11.1030   11.1185   11.0973   11.0943   11.1074   11.1280
   11.1530   11.1858   11.2349   11.3089   11.4127   11.5480
   11.7206   11.9482   12.2602   12.6820   13.2122   13.7819
   14.1786   14.0967   13.6247   13.0781   12.6080   12.2448
   11.9684   11.7503   11.5712   11.4230   11.3047   11.2169
   11.1568   11.1185   11.1476   11.1243   11.1267   11.1427
   11.1633   11.1858   11.2135   11.2543   11.3194   11.4174
   11.5532   11.7354   11.9865   12.3364   12.8051   13.3910
   14.0499   14.6265   14.7490   14.3068   13.6897   13.1205
   12.6577   12.2965   12.0114   11.7786   11.5842   11.4230
   11.2955   11.2038   11.1476   11.1969   11.1728   11.1802
   11.1979   11.2169   11.2349   11.2543   11.2822   11.3314
   11.4171   11.5491   11.7387   12.0116   12.3967   12.9080
   13.5424   14.2722   15.0017   15.3960   15.0512   14.3758
   13.7107   13.1445   12.6877   12.3227   12.0259   11.7786
   11.5712   11.4014   11.2737   11.1969   11.2671   11.2458
   11.2590   11.2782   11.2955   11.3089   11.3194   11.3314
   11.3563   11.4166   11.5363   11.7303   12.0231   12.4410
   12.9914   13.6678   14.4509   15.2886   15.9693   15.8491
   15.1366   14.3825   13.7144   13.1552   12.6976   12.3227
   12.0114   11.7503   11.5338   11.3661   11.2671   11.3525
   11.3406   11.3614   11.3837   11.4014   11.4127   11.4174
   11.4171   11.4166   11.4332   11.5170   11.7112   12.0244
   12.4740   13.0605   13.7726   14.5938   15.4959   16.3858
   16.6745   15.9727   15.1389   14.3757   13.7142   13.1552
   12.6877   12.2965   11.9684   11.6953   11.4792   11.3525
   11.4443   11.4517   11.4830   11.5116   11.5338   11.5480
   11.5532   11.5491   11.5363   11.5170   11.5102   11.6875
   12.0278   12.5084   13.1266   13.8662   14.7103   15.6412
   16.6242   17.4105   16.8842   15.9810   15.1328   14.3757
   13.7144   13.1445   12.6577   12.2448   11.8988   11.6187
   11.4443   11.5326   11.5775   11.6215   11.6616   11.6953
   11.7206   11.7354   11.7387   11.7303   11.7112   11.6875
   11.7467   12.0786   12.5750   13.2111   13.9624   14.8093
   15.7352   16.7204   17.7157   17.8688   16.9050   15.9810
   15.1389   14.3825   13.7107   13.1205   12.6080   12.1712
   11.8108   11.5326   11.7667   11.7294   11.7827   11.8420
   11.8988   11.9482   11.9865   12.0116   12.0231   12.0244
   12.0278   12.0786   12.2955   12.7388   13.3509   14.0807
   14.8971   15.7753   16.6851   17.5735   18.3369   17.8688
   16.8842   15.9727   15.1366   14.3758   13.6897   13.0781
   12.5430   12.0929   11.7667   12.0813   11.9428   11.9890
   12.0765   12.1712   12.2602   12.3364   12.3967   12.4410
   12.4740   12.5084   12.5750   12.7388   13.0763   13.5952
   14.2453   14.9768   15.7448   16.4933   17.1377   17.5735
   17.7157   17.4105   16.6745   15.8491   15.0512   14.3068
   13.6247   13.0117   12.4815   12.0813   12.4786   12.2589
   12.2798   12.3997   12.5430   12.6820   12.8051   12.9080
   12.9914   13.0605   13.1266   13.2111   13.3509   13.5952
   13.9752   14.4756   15.0458   15.6214   16.1277   16.4933
   16.6851   16.7204   16.6242   16.3858   15.9693   15.3960
   14.7490   14.0967   13.4778   12.9218   12.4786   12.8298
   12.6165   12.6425   12.8071   13.0117   13.2122   13.3910
   13.5424   13.6678   13.7726   13.8662   13.9624   14.0807
   14.2453   14.4756   14.7699   15.0954   15.3967   15.6214
   15.7448   15.7753   15.7352   15.6412   15.4959   15.2886
   15.0017   14.6265   14.1786   13.6953   13.2243   12.8298
   12.9005   12.7875   12.9005   13.1650   13.4778   13.7819
   14.0499   14.2722   14.4509   14.5938   14.7103   14.8093
   14.8971   14.9768   15.0458   15.0954   15.1137   15.0954
   15.0458   14.9768   14.8971   14.8093   14.7103   14.5938
   14.4509   14.2722   14.0499   13.7819   13.4778   13.1650
   12.9005   12.6425   12.6165   12.8298   13.2243   13.6953
   14.1786   14.6265   15.0017   15.2886   15.4959   15.6412
   15.7352   15.7753   15.7448   15.6214   15.3967   15.0954
   14.7699   14.4756   14.2453   14.0807   13.9624   13.8662
   13.7726   13.6678   13.5424   13.3910   13.2122   13.0117
   12.8071   12.6425   12.2798   12.2589   12.4786   12.9218
   13.4778   14.0967   14.7490   15.3960   15.9693   16.3858
   16.6242   16.7204   16.6851   16.4933   16.1277   15.6214
   15.0458   14.4756   13.9752   13.5952   13.3509   13.2111
   13.1266   13.0605   12.9914   12.9080   12.8051   12.6820
   12.5430   12.3997   12.2798   11.9890   11.9428   12.0813
   12.4815   13.0117   13.6247   14.3068   15.0512   15.8491
   16.6745   17.4105   17.7157   17.5735   17.1377   16.4933
   15.7448   14.9768   14.2453   13.5952   13.0763   12.7388
   12.5750   12.5084   12.4740   12.4410   12.3967   12.3364
   12.2602   12.1712   12.0765   11.9890   11.7827   11.7294
   11.7667   12.0929   12.5430   13.0781   13.6897   14.3758
   15.1366   15.9727   16.8842   17.8688   18.3369   17.5735
   16.6851   15.7753   14.8971   14.0807   13.3509   12.7388
   12.2955   12.0786   12.0278   12.0244   12.0231   12.0116
   11.9865   11.9482   11.8988   11.8420   11.7827   11.6215
   11.5775   11.5326   11.8108   12.1712   12.6080   13.1205
   13.7107   14.3825   15.1389   15.9810   16.9050   17.8688
   17.7157   16.7204   15.7352   14.8093   13.9624   13.2111
   12.5750   12.0786   11.7467   11.6875   11.7112   11.7303
   11.7387   11.7354   11.7206   11.6953   11.6616   11.6215
   11.4830   11.4517   11.4443   11.6187   11.8988   12.2448
   12.6577   13.1445   13.7144   14.3757   15.1328   15.9810
   16.8842   17.4105   16.6242   15.6412   14.7103   13.8662
   13.1266   12.5084   12.0278   11.6875   11.5102   11.5170
   11.5363   11.5491   11.5532   11.5480   11.5338   11.5116
   11.4830   11.3614   11.3406   11.3525   11.4792   11.6953
   11.9684   12.2965   12.6877   13.1552   13.7142   14.3757
   15.1389   15.9727   16.6745   16.3858   15.4959   14.5938
   13.7726   13.0605   12.4740   12.0244   11.7112   11.5170
   11.4332   11.4166   11.4171   11.4174   11.4127   11.4014
   11.3837   11.3614   11.2590   11.2458   11.2671   11.3661
   11.5338   11.7503   12.0114   12.3227   12.6976   13.1552
   13.7144   14.3825   15.1366   15.8491   15.9693   15.2886
   14.4509   13.6678   12.9914   12.4410   12.0231   11.7303
   11.5363   11.4166   11.3563   11.3314   11.3194   11.3089
   11.2955   11.2782   11.2590   11.1802   11.1728   11.1969
   11.2737   11.4014   11.5712   11.7786   12.0259   12.3227
   12.6877   13.1445   13.7107   14.3758   15.0512   15.3960
   15.0017   14.2722   13.5424   12.9080   12.3967   12.0116
   11.7387   11.5491   11.4171   11.3314   11.2822   11.2543
   11.2349   11.2169   11.1979   11.1802   11.1267   11.1243
   11.1476   11.2038   11.2955   11.4230   11.5842   11.7786
   12.0114   12.2965   12.6577   13.1205   13.6897   14.3068
   14.7490   14.6265   14.0499   13.3910   12.8051   12.3364
   11.9865   11.7354   11.5532   11.4174   11.3194   11.2543
   11.2135   11.1858   11.1633   11.1427   11.1267   11.0943
   11.0973   11.1185   11.1568   11.2169   11.3047   11.4230
   11.5712   11.7503   11.9684   12.2448   12.6080   13.0781
   13.6247   14.0967   14.1786   13.7819   13.2122   12.6820
   12.2602   11.9482   11.7206   11.5480   11.4127   11.3089
   11.2349   11.1858   11.1530   11.1280   11.1074   11.0943
   11.0749   11.0838   11.1030   11.1280   11.1633   11.2169
   11.2955   11.4014   11.5338   11.6953   11.8988   12.1712
   12.5430   13.0117   13.4778   13.6953   13.4778   13.0117
   12.5430   12.1712   11.8988   11.6953   11.5338   11.4014
   11.2955   11.2169   11.1633   11.1280   11.1030   11.0838
   11.0749   11.0599   11.0755   11.0933   11.1094   11.1280
   11.1568   11.2038   11.2737   11.3661   11.4792   11.6187
   11.8108   12.0929   12.4815   12.9218   13.2243   13.1650
   12.8071   12.3997   12.0765   11.8420   11.6616   11.5116
   11.3837   11.2782   11.1979   11.1427   11.1074   11.0838
   11.0658   11.0599   11.0428   11.0664   11.0826   11.0933
   11.1030   11.1185   11.1476   11.1969   11.2671   11.3525
   11.4443   11.5326   11.7667   12.0813   12.4786   12.8298
   12.9005   12.6425   12.2798   11.9890   11.7827   11.6215
   11.4830   11.3614   11.2590   11.1802   11.1267   11.0943
   11.0749   11.0599   11.0428   11.0303   11.0658   11.0933
   11.1143   11.1323   11.1530   11.1837   11.2311   11.2973
   11.3785   11.4662   11.6070   11.9074   12.2932   12.7629
   13.2213   13.4390   13.2530   12.8406   12.4364   12.1234
   11.8879   11.6992   11.5394   11.4024   11.2889   11.2011