 CRYSTAL
 PRIMVEC
   -2.700867567    0.000000000    2.700867567
    0.000000000    2.700867567    2.700867567
   -2.700867567    2.700867567    0.000000000
 PRIMCOORD
           2           1
Si        0.000000000    0.000000000    0.000000000
Si        1.350433783    1.350433783    1.350433783
BEGIN_BLOCK_DATAGRID_3D
3D_PWSCF
BEGIN_DATAGRID_3D_UNKNOWN
          25          25          25
  0.000000  0.000000  0.000000
   -2.700868    0.000000    2.700868
    0.000000    2.700868    2.700868
   -2.700868    2.700868    0.000000
  0.236295E-12 -0.146890E-02 -0.559006E-02 -0.112173E-01 -0.159430E-01 -0.175356E-01
 -0.158123E-01 -0.122968E-01 -0.849390E-02 -0.513151E-02 -0.253010E-02 -0.976330E-03
  0.698236E-03  0.175436E-02  0.401942E-02  0.722095E-02  0.110415E-01  0.151430E-01
  0.188001E-01  0.204663E-01  0.184577E-01  0.128725E-01  0.626887E-02  0.157152E-02
  0.236295E-12 -0.582301E-03 -0.227248E-02 -0.568007E-02 -0.994261E-02 -0.129012E-01
 -0.130242E-01 -0.108230E-01 -0.780267E-02 -0.497537E-02 -0.269472E-02 -0.112739E-02
  0.440853E-03  0.727078E-03  0.195695E-02  0.399332E-02  0.663830E-02  0.969236E-02
  0.127756E-01  0.148673E-01  0.144281E-01  0.109022E-01  0.597026E-02  0.215054E-02
  0.475395E-03 -0.582301E-03 -0.202437E-02 -0.334910E-02 -0.585084E-02 -0.854277E-02
 -0.969659E-02 -0.875672E-02 -0.664936E-02 -0.443679E-02 -0.258030E-02 -0.120491E-02
 -0.408641E-03  0.270176E-03  0.798561E-03  0.193994E-02  0.358562E-02  0.560769E-02
  0.784042E-02  0.979611E-02  0.104261E-01  0.884732E-02  0.571955E-02  0.297368E-02
  0.172661E-02 -0.158173E-02 -0.202437E-02 -0.394022E-02 -0.465114E-02 -0.597018E-02
 -0.692434E-02 -0.662177E-02 -0.528046E-02 -0.366748E-02 -0.224909E-02 -0.114983E-02
 -0.424086E-03 -0.122328E-03  0.252146E-03  0.795137E-03  0.171329E-02  0.293105E-02
  0.435903E-02  0.583307E-02  0.688223E-02  0.680524E-02  0.551138E-02  0.404096E-02
  0.344568E-02 -0.358770E-02 -0.377210E-02 -0.394022E-02 -0.555122E-02 -0.542173E-02
 -0.540786E-02 -0.497553E-02 -0.400060E-02 -0.284035E-02 -0.180616E-02 -0.986880E-03
 -0.406931E-03 -0.965631E-04  0.525087E-04  0.253910E-03  0.696911E-03  0.136169E-02
  0.219209E-02  0.313141E-02  0.406870E-02  0.472107E-02  0.483824E-02  0.469144E-02
  0.490334E-02 -0.554783E-02 -0.601741E-02 -0.591356E-02 -0.555122E-02 -0.606623E-02
 -0.508510E-02 -0.410973E-02 -0.308863E-02 -0.213329E-02 -0.135847E-02 -0.769725E-03
 -0.346152E-03 -0.947176E-04 -0.746939E-05  0.538693E-04  0.226708E-03  0.539134E-03
  0.977887E-03  0.151463E-02  0.215285E-02  0.288715E-02  0.365054E-02  0.443804E-02
  0.540837E-02 -0.657615E-02 -0.750631E-02 -0.767487E-02 -0.704905E-02 -0.606623E-02
 -0.542120E-02 -0.395749E-02 -0.269096E-02 -0.170901E-02 -0.102076E-02 -0.561816E-03
 -0.259990E-03 -0.821831E-04 -0.825808E-05  0.590389E-05  0.559775E-04  0.170159E-03
  0.365952E-03  0.647325E-03  0.103820E-02  0.160872E-02  0.243410E-02  0.354841E-02
  0.493889E-02 -0.647926E-02 -0.780359E-02 -0.841119E-02 -0.804471E-02 -0.690113E-02
 -0.542120E-02 -0.424780E-02 -0.277315E-02 -0.165404E-02 -0.905779E-03 -0.451326E-03
 -0.194967E-03 -0.650691E-04 -0.140404E-04  0.462940E-05  0.140240E-04  0.420620E-04
  0.106848E-03  0.235539E-03  0.469128E-03  0.879698E-03  0.156575E-02 -0.261245E-02
 -0.402913E-02 -0.567583E-02 -0.721645E-02 -0.819245E-02 -0.825459E-02 -0.738591E-02
 -0.590295E-02 -0.424780E-02 -0.317621E-02 -0.194172E-02 -0.107600E-02 -0.536270E-03
 -0.236462E-03 -0.920557E-04  0.343127E-04  0.152182E-04  0.979652E-05  0.121850E-04
 -0.306522E-04 -0.897640E-04 -0.235538E-03 -0.536256E-03 -0.107706E-02 -0.194331E-02
 -0.317660E-02 -0.469867E-02 -0.625154E-02 -0.743761E-02 -0.788418E-02 -0.743863E-02
 -0.625354E-02 -0.470020E-02 -0.317621E-02 -0.247759E-02  0.153192E-02  0.888438E-03
  0.488644E-03  0.256213E-03  0.126091E-03  0.546127E-04  0.176477E-04  0.522083E-05
 -0.195684E-04 -0.765429E-04 -0.207088E-03 -0.458282E-03 -0.893721E-03 -0.158571E-02
 -0.258511E-02 -0.386417E-02 -0.525966E-02 -0.647332E-02 -0.716720E-02 -0.712057E-02
 -0.634929E-02 -0.509894E-02 -0.371366E-02 -0.247759E-02  0.225924E-02  0.156063E-02
  0.105190E-02  0.679092E-03  0.397012E-03  0.192056E-03  0.639671E-04  0.570632E-05
 -0.125918E-04 -0.961100E-04 -0.275079E-03 -0.561651E-03 -0.973287E-03 -0.155096E-02
 -0.233931E-02 -0.333482E-02 -0.444602E-02 -0.549046E-02 -0.622995E-02 -0.645397E-02
 -0.609282E-02 -0.526752E-02  0.421515E-02  0.316333E-02  0.225924E-02  0.261685E-02
  0.203623E-02  0.150125E-02  0.100112E-02  0.562553E-03  0.237550E-03  0.530330E-04
 -0.683901E-05 -0.103272E-03 -0.356077E-03 -0.753853E-03 -0.125752E-02 -0.184435E-02
 -0.251929E-02 -0.326794E-02 -0.402598E-02 -0.470485E-02 -0.521571E-02 -0.546575E-02
 -0.539430E-02  0.503666E-02  0.450299E-02  0.388835E-02  0.324511E-02  0.261685E-02
  0.356607E-02  0.289088E-02  0.213339E-02  0.136848E-02  0.709146E-03  0.255548E-03
  0.503241E-04 -0.103137E-03 -0.418232E-03 -0.967043E-03 -0.166483E-02 -0.241276E-02
 -0.314097E-02 -0.378100E-02 -0.423609E-02 -0.443990E-02 -0.443450E-02 -0.434025E-02
 -0.426509E-02  0.427354E-02  0.437374E-02  0.447277E-02  0.441149E-02  0.409856E-02
  0.356607E-02  0.502030E-02  0.402024E-02  0.286426E-02  0.173056E-02  0.813013E-03
  0.257609E-03 -0.134951E-03 -0.455983E-03 -0.116705E-02 -0.213447E-02 -0.318096E-02
 -0.414467E-02 -0.487633E-02 -0.520651E-02 -0.500698E-02 -0.434134E-02 -0.352265E-02
 -0.297346E-02 -0.300689E-02  0.366594E-02  0.467140E-02  0.555141E-02  0.592870E-02
  0.571127E-02  0.502030E-02  0.685998E-02  0.532244E-02  0.361075E-02  0.202230E-02
  0.849149E-03  0.305758E-03 -0.480634E-03 -0.131422E-02 -0.260643E-02 -0.407756E-02
 -0.545067E-02 -0.647780E-02 -0.691145E-02 -0.653333E-02 -0.531519E-02 -0.360354E-02
 -0.210795E-02 -0.159246E-02  0.242127E-02  0.428428E-02  0.636502E-02  0.785532E-02
  0.837118E-02  0.796067E-02  0.685998E-02  0.893212E-02  0.666142E-02  0.425518E-02
  0.217208E-02  0.850527E-03 -0.579010E-03 -0.138021E-02 -0.299593E-02 -0.500001E-02
 -0.695014E-02 -0.846487E-02 -0.921444E-02 -0.891536E-02 -0.742880E-02 -0.497971E-02
 -0.234495E-02 -0.706667E-03  0.102107E-02  0.330516E-02  0.656054E-02  0.947393E-02
  0.111919E-01  0.115229E-01  0.106663E-01  0.893212E-02  0.110460E-01  0.788041E-02
  0.467638E-02  0.215069E-02  0.958979E-03 -0.139656E-02 -0.322842E-02 -0.582995E-02
 -0.849874E-02 -0.106597E-01 -0.118875E-01 -0.118650E-01 -0.103975E-01 -0.756348E-02
 -0.399174E-02 -0.996554E-03  0.102214E-03  0.200899E-02  0.596061E-02  0.102894E-01
  0.135552E-01  0.151398E-01  0.150612E-01  0.135842E-01  0.110460E-01  0.130401E-01
  0.880264E-02  0.471162E-02  0.195522E-02 -0.144030E-02 -0.321302E-02 -0.644085E-02
 -0.997519E-02 -0.129009E-01 -0.146763E-01 -0.150043E-01 -0.137173E-01 -0.108192E-01
 -0.673313E-02 -0.261037E-02 -0.198935E-03  0.896977E-03  0.464169E-02  0.987626E-02
  0.146940E-01  0.179062E-01  0.191857E-01  0.186440E-01  0.164980E-01  0.130401E-01
  0.146507E-01  0.903225E-02  0.407986E-02  0.169891E-02 -0.278079E-02 -0.654204E-02
 -0.111807E-01 -0.150868E-01 -0.174462E-01 -0.180540E-01 -0.169160E-01 -0.140900E-01
 -0.985823E-02 -0.508971E-02 -0.137809E-02  0.453504E-03  0.303364E-02  0.819940E-02
  0.140395E-01  0.188768E-01  0.219012E-01  0.229616E-01  0.220881E-01  0.192679E-01
  0.146507E-01  0.151196E-01  0.790490E-02  0.272039E-02 -0.195708E-02 -0.564776E-02
 -0.115310E-01 -0.168710E-01 -0.200864E-01 -0.209365E-01 -0.197750E-01 -0.169388E-01
 -0.127186E-01 -0.773164E-02 -0.322695E-02 -0.841036E-03  0.174112E-02  0.580951E-02
  0.116731E-01  0.175769E-01  0.222782E-01  0.252681E-01  0.263678E-01  0.252483E-01
  0.214493E-01  0.151196E-01  0.133193E-01  0.523268E-02  0.144074E-02 -0.366298E-02
 -0.101569E-01 -0.172485E-01 -0.219806E-01 -0.234542E-01 -0.222540E-01 -0.192423E-01
 -0.149910E-01 -0.100090E-01 -0.518522E-02 -0.182767E-02  0.113952E-02  0.354272E-02
  0.840365E-02  0.143769E-01  0.201133E-01  0.247820E-01  0.279813E-01  0.291745E-01
  0.273681E-01  0.217801E-01  0.133193E-01  0.905309E-02  0.220133E-02 -0.153579E-02
 -0.690350E-02 -0.149807E-01 -0.216937E-01 -0.246971E-01 -0.240283E-01 -0.209469E-01
 -0.166017E-01 -0.116864E-01 -0.684880E-02 -0.301559E-02  0.118689E-02  0.196444E-02
  0.525927E-02  0.103255E-01  0.160906E-01  0.216333E-01  0.263771E-01  0.296864E-01
  0.303093E-01  0.267140E-01  0.187386E-01  0.905309E-02  0.412103E-02  0.571992E-03
 -0.314454E-02 -0.101453E-01 -0.179746E-01 -0.231257E-01 -0.241065E-01 -0.216798E-01
 -0.174671E-01 -0.126823E-01 -0.801305E-02 -0.408119E-02 -0.160659E-02  0.115505E-02
  0.289090E-02  0.652721E-02  0.114175E-01  0.168107E-01  0.221070E-01  0.266722E-01
  0.292529E-01  0.279774E-01  0.218284E-01  0.125011E-01  0.412103E-02  0.899196E-03
 -0.689675E-03 -0.486232E-02 -0.116391E-01 -0.180653E-01 -0.213566E-01 -0.206963E-01
 -0.173134E-01 -0.129181E-01 -0.857652E-02 -0.482482E-02 -0.212269E-02  0.910853E-03
  0.142821E-02  0.362835E-02  0.719769E-02  0.116515E-01  0.165136E-01  0.212674E-01
  0.248526E-01  0.254154E-01  0.214575E-01  0.138105E-01  0.580232E-02  0.899196E-03
  0.236295E-12 -0.146890E-02 -0.559006E-02 -0.112173E-01 -0.159430E-01 -0.175356E-01
 -0.158123E-01 -0.122968E-01 -0.849390E-02 -0.513151E-02 -0.253010E-02 -0.976330E-03
  0.698236E-03  0.175436E-02  0.401942E-02  0.722095E-02  0.110415E-01  0.151430E-01
  0.188001E-01  0.204663E-01  0.184577E-01  0.128725E-01  0.626887E-02  0.157152E-02
  0.236295E-12 -0.332741E-03 -0.226051E-02 -0.593045E-02 -0.103567E-01 -0.133448E-01
 -0.134114E-01 -0.111267E-01 -0.802703E-02 -0.513485E-02 -0.280659E-02 -0.120829E-02
  0.504645E-03  0.784183E-03  0.201452E-02  0.405515E-02  0.670332E-02  0.975143E-02
  0.128107E-01  0.148592E-01  0.143662E-01  0.107770E-01  0.575798E-02  0.183896E-02
  0.124221E-03 -0.332741E-03 -0.956858E-03 -0.264175E-02 -0.562562E-02 -0.879985E-02
 -0.102673E-01 -0.939045E-02 -0.717377E-02 -0.480638E-02 -0.281853E-02 -0.134916E-02
 -0.495692E-03  0.339427E-03  0.889810E-03  0.208605E-02  0.381088E-02  0.592991E-02
  0.825587E-02  0.102333E-01  0.107094E-01  0.876374E-02  0.517174E-02  0.203253E-02
  0.544879E-03 -0.347868E-03 -0.956858E-03 -0.207317E-02 -0.338058E-02 -0.546961E-02
 -0.712947E-02 -0.720653E-02 -0.589641E-02 -0.414404E-02 -0.256819E-02 -0.134445E-02
 -0.531514E-03 -0.185396E-03  0.321611E-03  0.918110E-03  0.192344E-02  0.325204E-02
  0.480269E-02  0.635370E-02  0.729231E-02  0.677450E-02  0.476901E-02  0.258642E-02
  0.148289E-02 -0.136645E-02 -0.157629E-02 -0.207317E-02 -0.350717E-02 -0.419216E-02
 -0.505527E-02 -0.524823E-02 -0.450130E-02 -0.329814E-02 -0.213741E-02 -0.119912E-02
 -0.525655E-03 -0.154044E-03  0.927839E-04  0.324473E-03  0.834963E-03  0.158947E-02
  0.252078E-02  0.354502E-02  0.445684E-02  0.480844E-02  0.426672E-02  0.327573E-02
  0.275245E-02 -0.292526E-02 -0.323521E-02 -0.332647E-02 -0.350717E-02 -0.450541E-02
 -0.432330E-02 -0.401996E-02 -0.335252E-02 -0.246986E-02 -0.163780E-02 -0.963718E-03
 -0.460111E-03 -0.146537E-03 -0.280598E-04  0.805852E-04  0.293340E-03  0.668576E-03
  0.117812E-02  0.177523E-02  0.242087E-02  0.301127E-02  0.335921E-02  0.346422E-02
  0.368775E-02 -0.427574E-02 -0.490414E-02 -0.509379E-02 -0.482967E-02 -0.450541E-02
 -0.448171E-02 -0.357906E-02 -0.268501E-02 -0.186141E-02 -0.119855E-02 -0.708099E-03
 -0.354441E-03 -0.125610E-03 -0.190314E-04  0.939480E-05  0.758484E-04  0.226541E-03
  0.469216E-03  0.787686E-03  0.117865E-02  0.167084E-02  0.227301E-02  0.296845E-02
  0.380124E-02 -0.481277E-02 -0.578925E-02 -0.629757E-02 -0.610018E-02 -0.537870E-02
 -0.448171E-02 -0.366155E-02 -0.251222E-02 -0.159254E-02 -0.940040E-03 -0.515536E-03
 -0.248991E-03 -0.915238E-04 -0.177665E-04  0.215180E-06  0.139689E-04  0.570068E-04
  0.145794E-03  0.294470E-03  0.518873E-03  0.865509E-03  0.140775E-02  0.220403E-02
  0.326493E-02 -0.452006E-02 -0.574674E-02 -0.657063E-02 -0.667269E-02 -0.603065E-02
 -0.491395E-02 -0.366155E-02 -0.269647E-02 -0.166256E-02 -0.931177E-03 -0.470271E-03
 -0.207596E-03 -0.747308E-04 -0.202503E-04  0.562670E-05  0.563728E-05  0.124875E-04
  0.341959E-04  0.912076E-04  0.215817E-03  0.457894E-03 -0.887750E-03 -0.158023E-02
 -0.257594E-02 -0.382276E-02 -0.512247E-02 -0.614449E-02 -0.655729E-02 -0.621494E-02
 -0.524482E-02 -0.396221E-02 -0.269647E-02 -0.198578E-02 -0.117422E-02 -0.632226E-03
  0.309180E-03  0.138623E-03  0.595248E-04  0.256615E-04  0.106606E-04  0.570519E-05
 -0.128580E-04 -0.441564E-04 -0.127065E-03 -0.307330E-03 -0.645275E-03 -0.120617E-02
 -0.203743E-02 -0.312221E-02 -0.432591E-02 -0.538932E-02 -0.601165E-02 -0.599219E-02
 -0.533759E-02 -0.425811E-02 -0.305614E-02 -0.198578E-02  0.163226E-02  0.103184E-02
  0.628143E-03  0.370286E-03  0.205814E-03  0.997927E-04  0.353363E-04  0.528969E-05
 -0.878137E-05 -0.528389E-04 -0.152418E-03 -0.330409E-03 -0.622066E-03 -0.107590E-02
 -0.173630E-02 -0.260577E-02 -0.360475E-02 -0.455940E-02 -0.524129E-02 -0.545566E-02
 -0.513656E-02 -0.438436E-02 -0.341277E-02  0.244493E-02  0.163226E-02  0.168820E-02
  0.123192E-02  0.866557E-03  0.562295E-03  0.312070E-03  0.130109E-03  0.266038E-04
 -0.131228E-05 -0.579293E-04 -0.206151E-03 -0.447091E-03 -0.773730E-03 -0.119265E-02
 -0.172688E-02 -0.238261E-02 -0.311528E-02 -0.382751E-02 -0.439053E-02 -0.467644E-02
 -0.460969E-02 -0.421473E-02  0.360470E-02  0.291594E-02  0.225575E-02  0.168820E-02
  0.218691E-02  0.173357E-02  0.125914E-02  0.795720E-03  0.403146E-03  0.135836E-03
  0.166830E-04 -0.513863E-04 -0.244786E-03 -0.585407E-03 -0.103009E-02 -0.152688E-02
 -0.204407E-02 -0.255817E-02 -0.302739E-02 -0.340207E-02 -0.365530E-02 -0.378283E-02
 -0.378641E-02 -0.368185E-02  0.350273E-02  0.326906E-02  0.297221E-02  0.260609E-02
  0.218691E-02  0.307999E-02  0.244941E-02  0.172731E-02  0.102703E-02  0.466536E-03
  0.131049E-03 -0.617517E-04 -0.266284E-03 -0.715860E-03 -0.133461E-02 -0.201600E-02
 -0.265760E-02 -0.317130E-02 -0.347475E-02 -0.351515E-02 -0.332473E-02 -0.303623E-02
 -0.282200E-02 -0.280953E-02  0.302421E-02  0.336788E-02  0.365848E-02  0.373333E-02
  0.353070E-02  0.307999E-02  0.428184E-02  0.330821E-02  0.222535E-02  0.122719E-02
  0.493777E-03  0.159628E-03 -0.282695E-03 -0.824427E-03 -0.165936E-02 -0.261533E-02
 -0.351424E-02 -0.418807E-02 -0.448561E-02 -0.430755E-02 -0.367762E-02 -0.280181E-02
 -0.204297E-02 -0.177463E-02  0.217217E-02  0.308944E-02  0.413951E-02  0.492257E-02
  0.520903E-02  0.496531E-02  0.428184E-02  0.571029E-02  0.423974E-02  0.268708E-02
  0.134799E-02  0.503074E-03 -0.345741E-03 -0.890065E-03 -0.195976E-02 -0.327928E-02
 -0.456571E-02 -0.555612E-02 -0.601695E-02 -0.578749E-02 -0.484790E-02 -0.339236E-02
 -0.188096E-02 -0.956740E-03  0.112662E-02  0.239396E-02  0.422985E-02  0.593766E-02
  0.702627E-02  0.730812E-02  0.681476E-02  0.571029E-02  0.724833E-02  0.513333E-02
  0.301921E-02  0.136830E-02  0.607104E-03 -0.930839E-03 -0.217574E-02 -0.392741E-02
 -0.573145E-02 -0.719254E-02 -0.798067E-02 -0.786727E-02 -0.679033E-02 -0.490458E-02
 -0.265593E-02 -0.826161E-03  0.286747E-03  0.142860E-02  0.381299E-02  0.649478E-02
  0.863914E-02  0.980764E-02  0.988227E-02  0.894846E-02  0.724833E-02  0.875367E-02
  0.585500E-02  0.312961E-02  0.133122E-02 -0.103442E-02 -0.226031E-02 -0.446468E-02
 -0.690869E-02 -0.897513E-02 -0.102233E-01 -0.103672E-01 -0.931035E-02 -0.718054E-02
 -0.437438E-02 -0.165867E-02 -0.103220E-03  0.548065E-03  0.294335E-02  0.634538E-02
  0.960337E-02  0.119383E-01  0.129995E-01  0.127093E-01  0.111923E-01  0.875367E-02
  0.100507E-01  0.618278E-02  0.288302E-02  0.134978E-02 -0.213649E-02 -0.472931E-02
 -0.797005E-02 -0.108008E-01 -0.125921E-01 -0.130534E-01 -0.121106E-01 -0.988697E-02
 -0.673783E-02 -0.334828E-02 -0.781430E-03  0.147163E-03  0.189622E-02  0.542985E-02
  0.952433E-02  0.130732E-01  0.154221E-01  0.162794E-01  0.155722E-01  0.133962E-01
  0.100507E-01  0.107009E-01  0.568913E-02  0.219000E-02 -0.175644E-02 -0.438797E-02
 -0.857268E-02 -0.124810E-01 -0.149862E-01 -0.157666E-01 -0.149129E-01 -0.126507E-01
 -0.932160E-02 -0.551236E-02 -0.216448E-02 -0.415658E-03  0.105971E-02  0.400627E-02
  0.831132E-02  0.127591E-01  0.164070E-01  0.187209E-01  0.194236E-01  0.183198E-01
  0.153062E-01  0.107009E-01  0.989419E-02  0.408060E-02  0.145331E-02 -0.320036E-02
 -0.805527E-02 -0.133892E-01 -0.170719E-01 -0.183706E-01 -0.175655E-01 -0.152027E-01
 -0.117537E-01 -0.772757E-02 -0.389121E-02 -0.125412E-02  0.707961E-03  0.255668E-02
  0.632604E-02  0.110148E-01  0.155767E-01  0.192671E-01  0.216353E-01  0.222492E-01
  0.205325E-01  0.161506E-01  0.989419E-02  0.718822E-02  0.197843E-02 -0.163822E-02
 -0.601331E-02 -0.124754E-01 -0.178461E-01 -0.203081E-01 -0.198522E-01 -0.173908E-01
 -0.137974E-01 -0.966857E-02 -0.560175E-02 -0.239432E-02 -0.864832E-03  0.149270E-02
  0.419997E-02  0.838224E-02  0.131558E-01  0.177101E-01  0.214800E-01  0.239115E-01
  0.241015E-01  0.210283E-01  0.146971E-01  0.718822E-02  0.358429E-02  0.759796E-03
 -0.316657E-02 -0.928945E-02 -0.159845E-01 -0.202952E-01 -0.210488E-01 -0.189344E-01
 -0.152940E-01 -0.111238E-01 -0.701926E-02 -0.355001E-02 -0.136301E-02  0.953289E-03
  0.245843E-02  0.562335E-02  0.987431E-02  0.145247E-01  0.190027E-01  0.227426E-01
  0.247402E-01  0.235327E-01  0.183339E-01  0.105407E-01  0.358429E-02  0.978277E-03
 -0.987867E-03 -0.505069E-02 -0.113771E-01 -0.171587E-01 -0.199425E-01 -0.191561E-01
 -0.159876E-01 -0.119479E-01 -0.795392E-02 -0.448484E-02 -0.197748E-02  0.847071E-03
  0.131190E-02  0.332379E-02  0.658573E-02  0.106319E-01  0.149958E-01  0.191988E-01
  0.223328E-01  0.228138E-01  0.193185E-01  0.125144E-01  0.533528E-02  0.978277E-03
  0.137515E-03 -0.177666E-02 -0.600242E-02 -0.115223E-01 -0.159526E-01 -0.172713E-01
 -0.154528E-01 -0.119948E-01 -0.830038E-02 -0.503594E-02 -0.250646E-02 -0.993082E-03
  0.714482E-03  0.172237E-02  0.389190E-02  0.695266E-02  0.105836E-01  0.144507E-01
  0.178841E-01  0.194668E-01  0.176206E-01  0.123725E-01  0.607721E-02  0.156494E-02
  0.137515E-03 -0.332741E-03 -0.226051E-02 -0.593045E-02 -0.103567E-01 -0.133448E-01
 -0.134114E-01 -0.111267E-01 -0.802703E-02 -0.513485E-02 -0.280659E-02 -0.120829E-02
  0.504645E-03  0.784183E-03  0.201452E-02  0.405515E-02  0.670332E-02  0.975143E-02
  0.128107E-01  0.148592E-01  0.143662E-01  0.107770E-01  0.575798E-02  0.183896E-02
  0.124221E-03 -0.332741E-03 -0.870985E-03 -0.281506E-02 -0.589949E-02 -0.894042E-02
 -0.102081E-01 -0.924362E-02 -0.705573E-02 -0.475078E-02 -0.281283E-02 -0.137761E-02
 -0.543921E-03  0.385600E-03  0.905990E-03  0.204590E-02  0.368893E-02  0.569171E-02
  0.786337E-02  0.969248E-02  0.101269E-01  0.829646E-02  0.486182E-02  0.176412E-02
  0.227897E-03 -0.622036E-04 -0.870985E-03 -0.128876E-02 -0.296123E-02 -0.535568E-02
 -0.719784E-02 -0.735226E-02 -0.605627E-02 -0.428668E-02 -0.268269E-02 -0.143267E-02
 -0.600874E-03 -0.243285E-03  0.373114E-03  0.965943E-03  0.196741E-02  0.328582E-02
  0.480770E-02  0.629444E-02  0.712070E-02  0.644252E-02  0.423587E-02  0.181982E-02
  0.485608E-03 -0.235044E-03 -0.513588E-03 -0.128876E-02 -0.210934E-02 -0.335569E-02
 -0.475497E-02 -0.531922E-02 -0.472921E-02 -0.353429E-02 -0.232511E-02 -0.133247E-02
 -0.614085E-03 -0.212100E-03  0.139473E-03  0.379249E-03  0.911575E-03  0.169282E-02
  0.264541E-02  0.366367E-02  0.449141E-02  0.460905E-02  0.365837E-02  0.216510E-02
  0.117423E-02 -0.101115E-02 -0.121227E-02 -0.149064E-02 -0.210934E-02 -0.302927E-02
 -0.353439E-02 -0.380326E-02 -0.345868E-02 -0.267463E-02 -0.182820E-02 -0.110780E-02
 -0.555770E-03 -0.202054E-03 -0.612300E-04  0.114801E-03  0.349043E-03  0.756317E-03
  0.129598E-02  0.190551E-02  0.250995E-02  0.293081E-02  0.290013E-02  0.243143E-02
  0.202981E-02 -0.210328E-02 -0.244203E-02 -0.265672E-02 -0.275068E-02 -0.302927E-02
 -0.337681E-02 -0.307171E-02 -0.258240E-02 -0.194436E-02 -0.132828E-02 -0.825990E-03
 -0.439846E-03 -0.174416E-03 -0.409484E-04  0.231667E-04  0.100749E-03  0.276162E-03
  0.545536E-03  0.876319E-03  0.124299E-02  0.163288E-02  0.198712E-02  0.224109E-02
  0.249388E-02 -0.294039E-02 -0.351887E-02 -0.389898E-02 -0.389163E-02 -0.364360E-02
 -0.337681E-02 -0.295142E-02 -0.219673E-02 -0.151175E-02 -0.966839E-03 -0.577309E-03
 -0.307000E-03 -0.127262E-03 -0.309927E-04 -0.247098E-05  0.184254E-04  0.744795E-04
  0.181860E-03  0.341003E-03  0.546929E-03  0.822018E-03  0.120649E-02  0.171876E-02
  0.236304E-02 -0.314370E-02 -0.396948E-02 -0.458054E-02 -0.471900E-02 -0.436220E-02
 -0.370612E-02 -0.295142E-02 -0.219253E-02 -0.140460E-02 -0.825020E-03 -0.444710E-03
 -0.213928E-03 -0.832604E-04 -0.207579E-04 -0.138205E-05  0.229342E-05  0.135607E-04
  0.419930E-04  0.102506E-03  0.211754E-03  0.398858E-03  0.714654E-03  0.121499E-02
 -0.192999E-02 -0.283252E-02 -0.379904E-02 -0.459212E-02 -0.494596E-02 -0.473304E-02
 -0.404784E-02 -0.312420E-02 -0.219253E-02 -0.155260E-02 -0.907638E-03 -0.476938E-03
 -0.220646E-03 -0.867060E-04 -0.284928E-04  0.913988E-05  0.427063E-05  0.374867E-05
  0.867288E-05 -0.294599E-04 -0.877968E-04 -0.218177E-03 -0.467309E-03 -0.888111E-03
 -0.152180E-02 -0.236244E-02 -0.331321E-02 -0.417261E-02 -0.469352E-02 -0.470292E-02
 -0.419943E-02 -0.335145E-02 -0.240151E-02 -0.155260E-02 -0.117670E-02  0.690860E-03
  0.378770E-03  0.197413E-03  0.993233E-04  0.467675E-04  0.177664E-04  0.422205E-05
 -0.599315E-05 -0.279603E-04 -0.824421E-04 -0.193290E-03 -0.397148E-03 -0.739068E-03
 -0.125868E-02 -0.196247E-02 -0.278875E-02 -0.359172E-02 -0.417404E-02 -0.436576E-02
 -0.410676E-02 -0.347834E-02 -0.266145E-02 -0.184993E-02 -0.117670E-02  0.108833E-02
  0.730988E-03  0.480374E-03  0.300041E-03  0.165100E-03  0.693021E-04  0.143565E-04
 -0.171244E-05 -0.345430E-04 -0.118808E-03 -0.260261E-03 -0.468211E-03 -0.764934E-03
 -0.118101E-02 -0.172888E-02 -0.237320E-02 -0.302164E-02 -0.354411E-02 -0.381333E-02
 -0.375608E-02 -0.339043E-02 -0.281810E-02  0.217439E-02  0.157501E-02  0.108833E-02
  0.131295E-02  0.100194E-02  0.712357E-03  0.445080E-03  0.222065E-03  0.702179E-04
  0.376789E-05 -0.277025E-04 -0.145387E-03 -0.351728E-03 -0.627412E-03 -0.953320E-03
 -0.132559E-02 -0.174362E-02 -0.218545E-02 -0.260364E-02 -0.294135E-02 -0.314529E-02
 -0.317680E-02 -0.303284E-02  0.275444E-02  0.240179E-02  0.202416E-02  0.165458E-02
  0.131295E-02  0.182566E-02  0.143121E-02  0.996732E-03  0.582575E-03  0.253609E-03
  0.588127E-04 -0.234614E-04 -0.152954E-03 -0.431458E-03 -0.817406E-03 -0.125276E-02
 -0.168196E-02 -0.205887E-02 -0.234246E-02 -0.250516E-02 -0.255278E-02 -0.252558E-02
 -0.247312E-02 -0.243295E-02  0.242417E-02  0.243721E-02  0.242745E-02  0.233817E-02
  0.213671E-02  0.182566E-02  0.255448E-02  0.195384E-02  0.129776E-02  0.699768E-03
  0.263116E-03  0.692764E-04 -0.155248E-03 -0.496740E-03 -0.101863E-02 -0.162269E-02
 -0.220502E-02 -0.266006E-02 -0.289392E-02 -0.285820E-02 -0.258409E-02 -0.218850E-02
 -0.184152E-02 -0.170249E-02  0.184721E-02  0.222586E-02  0.268495E-02  0.304158E-02
  0.315920E-02  0.298613E-02  0.255448E-02  0.344757E-02  0.253825E-02  0.159011E-02
  0.775829E-03  0.265387E-03 -0.184673E-03 -0.541771E-03 -0.122010E-02 -0.205167E-02
 -0.287191E-02 -0.351632E-02 -0.382601E-02 -0.370300E-02 -0.316543E-02 -0.235992E-02
 -0.154782E-02 -0.105243E-02  0.111841E-02  0.175066E-02  0.270249E-02  0.363283E-02
  0.426423E-02  0.444138E-02  0.413789E-02  0.344757E-02  0.445392E-02  0.312738E-02
  0.181446E-02  0.793759E-03  0.336843E-03 -0.571610E-03 -0.138377E-02 -0.250469E-02
 -0.365976E-02 -0.460563E-02 -0.511388E-02 -0.502393E-02 -0.432368E-02 -0.316191E-02
 -0.183277E-02 -0.774553E-03 -0.453407E-03  0.107622E-02  0.241180E-02  0.396237E-02
  0.526784E-02  0.603332E-02  0.611666E-02  0.553343E-02  0.445392E-02  0.547525E-02
  0.362213E-02  0.191145E-02  0.803237E-03 -0.656434E-03 -0.147679E-02 -0.291146E-02
 -0.450347E-02 -0.587040E-02 -0.670147E-02 -0.676822E-02 -0.601482E-02 -0.458908E-02
 -0.279829E-02 -0.111587E-02 -0.158823E-03  0.408686E-03  0.183400E-02  0.389475E-02
  0.593635E-02  0.748133E-02  0.823923E-02  0.807933E-02  0.707364E-02  0.547525E-02
  0.638140E-02  0.390060E-02  0.184787E-02  0.936142E-03 -0.149038E-02 -0.318445E-02
 -0.531120E-02 -0.722315E-02 -0.848206E-02 -0.881143E-02 -0.811572E-02 -0.652874E-02
 -0.437431E-02 -0.213292E-02 -0.462218E-03  0.387144E-04  0.113658E-02  0.338402E-02
  0.603923E-02  0.842496E-02  0.100745E-01  0.106898E-01  0.101646E-01  0.862513E-02
  0.638140E-02  0.694708E-02  0.375853E-02  0.160956E-02 -0.141661E-02 -0.315947E-02
 -0.590984E-02 -0.855349E-02 -0.103572E-01 -0.110016E-01 -0.104265E-01 -0.877235E-02
 -0.636340E-02 -0.368074E-02 -0.136864E-02 -0.163676E-03  0.580149E-03  0.255376E-02
  0.546875E-02  0.854249E-02  0.111281E-01  0.127649E-01  0.131621E-01  0.122175E-01
  0.100269E-01  0.694708E-02  0.670766E-02  0.297003E-02  0.136756E-02 -0.262243E-02
 -0.590594E-02 -0.954228E-02 -0.121650E-01 -0.132248E-01 -0.127667E-01 -0.110712E-01
 -0.850011E-02 -0.550904E-02 -0.269791E-02 -0.779763E-03  0.369411E-03  0.167339E-02
  0.435714E-02  0.772829E-02  0.110465E-01  0.137135E-01  0.152993E-01  0.154820E-01
  0.140132E-01  0.108798E-01  0.670766E-02  0.523064E-02  0.174869E-02 -0.167795E-02
 -0.487522E-02 -0.949414E-02 -0.133517E-01 -0.152038E-01 -0.149836E-01 -0.132298E-01
 -0.105228E-01 -0.734197E-02 -0.420196E-02 -0.173440E-02 -0.553574E-03  0.101146E-02
  0.304431E-02  0.619959E-02  0.981017E-02  0.132223E-01  0.159258E-01  0.174714E-01
  0.173043E-01  0.148967E-01  0.103922E-01  0.523064E-02  0.290834E-02  0.969595E-03
 -0.301098E-02 -0.780399E-02 -0.129020E-01 -0.161206E-01 -0.166619E-01 -0.150480E-01
 -0.122297E-01 -0.892788E-02 -0.562594E-02 -0.281799E-02 -0.104344E-02  0.698495E-03
  0.188674E-02  0.440006E-02  0.777164E-02  0.114199E-01  0.148295E-01  0.175264E-01
  0.188083E-01  0.177180E-01  0.137734E-01  0.800103E-02  0.290834E-02  0.102684E-02
 -0.127466E-02 -0.489402E-02 -0.102114E-01 -0.148251E-01 -0.168660E-01 -0.160582E-01
 -0.134106E-01 -0.100762E-01 -0.674225E-02 -0.380939E-02 -0.167588E-02  0.707546E-03
  0.108539E-02  0.276296E-02  0.548223E-02  0.882416E-02  0.123500E-01  0.156410E-01
  0.180177E-01  0.183250E-01  0.155609E-01  0.101812E-01  0.445465E-02  0.102684E-02
 -0.410158E-03 -0.216496E-02 -0.619129E-02 -0.110713E-01 -0.146734E-01 -0.154787E-01
 -0.136941E-01 -0.106290E-01 -0.739708E-02 -0.451855E-02 -0.226878E-02 -0.917628E-03
  0.660834E-03  0.153727E-02  0.343281E-02  0.609518E-02  0.920688E-02  0.124511E-01
  0.152935E-01  0.166310E-01  0.151721E-01  0.108264E-01  0.545337E-02  0.153319E-02
 -0.410158E-03 -0.591852E-03 -0.272184E-02 -0.637512E-02 -0.104096E-01 -0.128625E-01
 -0.126340E-01 -0.103968E-01 -0.751399E-02 -0.483877E-02 -0.267314E-02 -0.118214E-02
  0.523451E-03  0.771677E-03  0.189273E-02  0.375477E-02  0.615452E-02  0.887686E-02
  0.115785E-01  0.134091E-01  0.130574E-01  0.995937E-02  0.545632E-02  0.181154E-02
  0.214988E-03 -0.591852E-03 -0.870985E-03 -0.281506E-02 -0.589949E-02 -0.894042E-02
 -0.102081E-01 -0.924362E-02 -0.705573E-02 -0.475078E-02 -0.281283E-02 -0.137761E-02
 -0.543921E-03  0.385600E-03  0.905990E-03  0.204590E-02  0.368893E-02  0.569171E-02
  0.786337E-02  0.969248E-02  0.101269E-01  0.829646E-02  0.486182E-02  0.176412E-02
  0.227897E-03 -0.622036E-04 -0.870985E-03 -0.141109E-02 -0.321872E-02 -0.546994E-02
 -0.700043E-02 -0.696220E-02 -0.569118E-02 -0.404876E-02 -0.256256E-02 -0.139544E-02
 -0.619338E-03  0.286231E-03  0.398165E-03  0.930083E-03  0.183523E-02  0.302038E-02
  0.436157E-02  0.564509E-02  0.635690E-02  0.578185E-02  0.384130E-02  0.161383E-02
  0.285932E-03 -0.147430E-04 -0.408319E-03 -0.141109E-02 -0.166070E-02 -0.312812E-02
 -0.460296E-02 -0.517221E-02 -0.461247E-02 -0.347565E-02 -0.231554E-02 -0.135180E-02
 -0.650946E-03 -0.259163E-03  0.184707E-03  0.406716E-03  0.906456E-03  0.164053E-02
  0.252318E-02  0.343829E-02  0.414157E-02  0.415752E-02  0.314959E-02  0.158504E-02
  0.450579E-03 -0.136775E-03 -0.315978E-03 -0.762866E-03 -0.166070E-02 -0.213139E-02
 -0.301370E-02 -0.356121E-02 -0.338778E-02 -0.269230E-02 -0.188103E-02 -0.116669E-02
 -0.609255E-03 -0.248397E-03 -0.101862E-03  0.150803E-03  0.379785E-03  0.778020E-03
  0.129824E-02  0.186510E-02  0.238447E-02  0.265803E-02  0.240620E-02  0.164629E-02
  0.910593E-03 -0.672554E-03 -0.828983E-03 -0.108819E-02 -0.145708E-02 -0.213139E-02
 -0.243375E-02 -0.257472E-02 -0.239561E-02 -0.192306E-02 -0.137411E-02 -0.888572E-03
 -0.496612E-03 -0.217240E-03 -0.712285E-04  0.478013E-04  0.126964E-03  0.307040E-03
  0.576028E-03  0.889544E-03  0.120449E-02  0.147957E-02  0.161788E-02  0.153250E-02
  0.135445E-02  0.136783E-02 -0.162420E-02 -0.190089E-02 -0.206318E-02 -0.220973E-02
 -0.243375E-02 -0.222792E-02 -0.184034E-02 -0.138157E-02 -0.949943E-03 -0.607468E-03
 -0.348407E-03 -0.160886E-03 -0.513119E-04 -0.142996E-04  0.300524E-04  0.921443E-04
  0.205292E-03  0.358130E-03  0.530264E-03  0.724436E-03  0.951811E-03  0.119744E-02
  0.146047E-02 -0.180433E-02 -0.224831E-02 -0.264658E-02 -0.281689E-02 -0.273763E-02
 -0.251975E-02 -0.222792E-02 -0.168129E-02 -0.114415E-02 -0.716401E-03 -0.417223E-03
 -0.222145E-03 -0.986982E-04 -0.301404E-04 -0.426523E-05  0.361843E-05  0.177420E-04
  0.505614E-04  0.109487E-03  0.197365E-03  0.326771E-03  0.530344E-03  0.842142E-03
  0.127698E-02 -0.182746E-02 -0.244218E-02 -0.298302E-02 -0.326461E-02 -0.318781E-02
 -0.280843E-02 -0.226531E-02 -0.168129E-02 -0.116013E-02 -0.688839E-03 -0.367925E-03
 -0.172635E-03 -0.664922E-04 -0.179103E-04 -0.224281E-05  0.444535E-06  0.205607E-05
  0.679797E-05  0.227167E-04  0.641943E-04  0.152817E-03 -0.320255E-03 -0.604675E-03
 -0.103679E-02 -0.161709E-02 -0.228699E-02 -0.291126E-02 -0.330970E-02 -0.334722E-02
 -0.301564E-02 -0.243270E-02 -0.176712E-02 -0.116013E-02 -0.827870E-03 -0.464619E-03
 -0.235007E-03  0.106832E-03  0.444397E-04  0.176682E-04  0.651423E-05  0.192421E-05
 -0.262196E-05 -0.125524E-04 -0.422904E-04 -0.111573E-03 -0.249231E-03 -0.489722E-03
 -0.864274E-03 -0.138180E-02 -0.200137E-02 -0.261538E-02 -0.307052E-02 -0.323013E-02
 -0.304279E-02 -0.256943E-02 -0.195018E-02 -0.133547E-02 -0.827870E-03  0.697472E-03