 CRYSTAL
 PRIMVEC
   -2.700867567    0.000000000    2.700867567
    0.000000000    2.700867567    2.700867567
   -2.700867567    2.700867567    0.000000000
 PRIMCOORD
           2           1
Si        0.000000000    0.000000000    0.000000000
Si        1.350433783    1.350433783    1.350433783
BEGIN_BLOCK_DATAGRID_3D
3D_PWSCF
BEGIN_DATAGRID_3D_UNKNOWN
          25          25          25
  0.000000  0.000000  0.000000
   -2.700868    0.000000    2.700868
    0.000000    2.700868    2.700868
   -2.700868    2.700868    0.000000
  0.159113E-13 -0.218311E-03 -0.101984E-02 -0.234736E-02 -0.353059E-02 -0.409583E-02
 -0.418876E-02 -0.416611E-02 -0.419680E-02 -0.427549E-02 -0.441235E-02 -0.464093E-02
 -0.493060E-02 -0.522943E-02 -0.553887E-02 -0.585590E-02 -0.612372E-02 -0.631890E-02
 -0.644860E-02 -0.631253E-02 -0.543261E-02 -0.359925E-02 -0.153319E-02 -0.295892E-03
  0.159113E-13  0.107796E-02  0.594567E-03  0.439409E-03 -0.879545E-03 -0.148110E-02
 -0.187981E-02 -0.211013E-02 -0.232794E-02 -0.255988E-02 -0.278382E-02 -0.302471E-02
 -0.328408E-02 -0.351197E-02 -0.369194E-02 -0.385132E-02 -0.397866E-02 -0.403896E-02
 -0.404494E-02 -0.394770E-02 -0.349765E-02 -0.252447E-02  0.144731E-02  0.101292E-02
  0.117027E-02  0.107796E-02  0.447382E-02  0.269668E-02  0.132328E-02  0.754578E-03
 -0.648872E-03 -0.699831E-03 -0.868560E-03 -0.113693E-02 -0.142546E-02 -0.170156E-02
 -0.196698E-02 -0.218280E-02 -0.230937E-02 -0.237123E-02 -0.240604E-02 -0.241446E-02
 -0.242286E-02 -0.249239E-02  0.258216E-02  0.260140E-02  0.276866E-02  0.356399E-02
  0.483715E-02  0.541736E-02  0.447382E-02  0.939256E-02  0.600222E-02  0.324509E-02
  0.152785E-02  0.609246E-03 -0.243637E-03 -0.261013E-03 -0.470625E-03 -0.731535E-03
 -0.992275E-03 -0.121364E-02 -0.134230E-02 -0.137568E-02 -0.136845E-02 -0.136836E-02
 -0.142949E-02  0.168193E-02  0.228169E-02  0.331155E-02  0.489177E-02  0.723600E-02
  0.100933E-01  0.121682E-01  0.119511E-01  0.939256E-02  0.135888E-01  0.872094E-02
  0.480010E-02  0.220230E-02  0.750801E-03  0.139257E-03 -0.356191E-04 -0.162345E-03
 -0.364929E-03 -0.567906E-03 -0.708652E-03 -0.756240E-03 -0.747454E-03 -0.752927E-03
  0.853561E-03  0.120103E-02  0.205672E-02  0.370534E-02  0.635824E-02  0.100964E-01
  0.145588E-01  0.184587E-01  0.199208E-01  0.179812E-01  0.135888E-01  0.151946E-01
  0.956220E-02  0.519554E-02  0.236293E-02  0.822212E-03  0.164450E-03  0.184365E-05
 -0.659932E-04 -0.207081E-03 -0.335934E-03 -0.400872E-03 -0.408063E-03 -0.418528E-03
  0.524649E-03  0.874684E-03  0.173256E-02  0.346859E-02  0.643949E-02  0.108022E-01
  0.162294E-01  0.215608E-01  0.249034E-01  0.246793E-01  0.208972E-01  0.151946E-01
  0.142387E-01  0.874841E-02  0.469382E-02  0.215174E-02  0.792588E-03  0.201606E-03
  0.374753E-04 -0.693513E-04 -0.155582E-03 -0.218400E-03 -0.237098E-03 -0.245366E-03
  0.324749E-03  0.613000E-03  0.133780E-02  0.283863E-02  0.551301E-02  0.964187E-02
  0.150857E-01  0.209580E-01  0.256113E-01  0.272981E-01  0.252609E-01  0.203042E-01
  0.142387E-01  0.119413E-01  0.718304E-02  0.382007E-02  0.176336E-02  0.675887E-03
  0.209688E-03  0.849014E-04 -0.101859E-03 -0.142415E-03 -0.159779E-03 -0.159663E-03
  0.195354E-03  0.382455E-03  0.915324E-03  0.207313E-02  0.420383E-02  0.763093E-02
  0.124109E-01  0.180032E-01  0.231447E-01  0.262324E-01  0.261321E-01  0.228602E-01
  0.175868E-01  0.119413E-01  0.932064E-02  0.547775E-02  0.286787E-02  0.131603E-02
  0.523989E-03  0.206349E-03  0.128897E-03 -0.131780E-03 -0.136974E-03 -0.125644E-03
  0.120103E-03  0.198600E-03  0.517836E-03  0.130934E-02  0.285982E-02  0.547130E-02
  0.931949E-02  0.141761E-01  0.191894E-01  0.230350E-01  0.244831E-01  0.230330E-01
  0.191853E-01  0.141725E-01  0.932064E-02  0.681497E-02  0.388710E-02  0.199211E-02
  0.919317E-03  0.407047E-03  0.217848E-03 -0.170023E-03 -0.156172E-03 -0.132672E-03
 -0.964872E-04  0.871541E-04  0.211280E-03  0.650762E-03  0.164384E-02  0.345845E-02
  0.632288E-02  0.102399E-01  0.147425E-01  0.188416E-01  0.213552E-01  0.214699E-01
  0.191602E-01  0.151987E-01  0.107504E-01  0.681497E-02  0.464148E-02  0.258120E-02
  0.132783E-02  0.664388E-03  0.369579E-03 -0.264855E-03 -0.229221E-03 -0.195827E-03
 -0.138907E-03 -0.692208E-04  0.462457E-04  0.192081E-03  0.690211E-03  0.177027E-02
  0.367090E-02  0.653599E-02  0.102210E-01  0.141200E-01  0.172346E-01  0.185804E-01
  0.177100E-01  0.149656E-01  0.112658E-01  0.760604E-02  0.464148E-02  0.301882E-02
  0.171591E-02  0.975847E-03  0.608789E-03 -0.453960E-03 -0.397442E-03 -0.360666E-03
 -0.295103E-03 -0.188709E-03 -0.698598E-04  0.782306E-05  0.120320E-03  0.581586E-03
  0.160668E-02  0.339416E-02  0.601211E-02  0.922794E-02  0.123839E-01  0.145351E-01
  0.149249E-01  0.134655E-01  0.107696E-01  0.772409E-02  0.502958E-02  0.301882E-02
  0.212248E-02  0.139644E-02 -0.100532E-02 -0.815658E-03 -0.735513E-03 -0.696183E-03
 -0.635285E-03 -0.516422E-03 -0.346845E-03 -0.163712E-03 -0.253268E-04  0.342353E-04
  0.352256E-03  0.116911E-02  0.263957E-02  0.478834E-02  0.735367E-02  0.968562E-02
  0.109681E-01  0.107466E-01  0.924586E-02  0.712809E-02  0.502747E-02  0.331728E-02
  0.212248E-02  0.204113E-02 -0.167901E-02 -0.146971E-02 -0.135162E-02 -0.128861E-02
 -0.122941E-02 -0.111801E-02 -0.937491E-03 -0.708048E-03 -0.451809E-03 -0.200880E-03
 -0.405151E-04  0.113524E-03  0.577042E-03  0.155861E-02  0.307734E-02  0.488712E-02
  0.642701E-02  0.712604E-02  0.683899E-02  0.588079E-02  0.468140E-02  0.354655E-02
  0.264740E-02  0.204113E-02 -0.276997E-02 -0.255614E-02 -0.238157E-02 -0.225419E-02
 -0.216402E-02 -0.205783E-02 -0.189133E-02 -0.166626E-02 -0.139298E-02 -0.106002E-02
 -0.672900E-03 -0.300499E-03 -0.617976E-04  0.890577E-04  0.505347E-03  0.135095E-02
  0.245561E-02  0.345867E-02  0.407411E-02  0.427341E-02  0.416101E-02  0.383777E-02
  0.342408E-02 -0.304993E-02 -0.276997E-02 -0.418938E-02 -0.395617E-02 -0.373162E-02
 -0.356033E-02 -0.342649E-02 -0.327508E-02 -0.307878E-02 -0.283789E-02 -0.253096E-02
 -0.211690E-02 -0.159082E-02 -0.101179E-02 -0.478510E-03 -0.108300E-03  0.309382E-04
  0.340832E-03  0.101889E-02  0.193900E-02  0.294088E-02  0.382869E-02 -0.440009E-02
 -0.459701E-02 -0.454359E-02 -0.438894E-02 -0.418938E-02 -0.611935E-02 -0.580251E-02
 -0.550294E-02 -0.526902E-02 -0.509191E-02 -0.493642E-02 -0.476787E-02 -0.453940E-02
 -0.419131E-02 -0.368766E-02 -0.304673E-02 -0.233001E-02 -0.161701E-02 -0.100970E-02
 -0.659244E-03 -0.753496E-03 -0.142915E-02 -0.265229E-02 -0.413742E-02 -0.543738E-02
 -0.623692E-02 -0.654105E-02 -0.653961E-02 -0.638053E-02 -0.611935E-02 -0.836479E-02
 -0.791037E-02 -0.744081E-02 -0.708159E-02 -0.691220E-02 -0.689221E-02 -0.686904E-02
 -0.668155E-02 -0.626462E-02 -0.565967E-02 -0.494914E-02 -0.419955E-02 -0.346370E-02
 -0.283697E-02 -0.251631E-02 -0.276619E-02 -0.374487E-02 -0.529701E-02 -0.694375E-02
 -0.818292E-02 -0.882537E-02 -0.900531E-02 -0.893284E-02 -0.871409E-02 -0.836479E-02
 -0.104843E-01 -0.962367E-02 -0.875864E-02 -0.828977E-02 -0.838348E-02 -0.879579E-02
 -0.907153E-02 -0.892161E-02 -0.838495E-02 -0.767021E-02 -0.693817E-02 -0.624332E-02
 -0.561629E-02 -0.517258E-02 -0.514075E-02 -0.574652E-02 -0.700042E-02 -0.858032E-02
 -0.999073E-02 -0.108960E-01 -0.112935E-01 -0.113821E-01 -0.113111E-01 -0.110520E-01
 -0.104843E-01 -0.115119E-01 -0.984277E-02 -0.856675E-02 -0.836659E-02 -0.920160E-02
 -0.103300E-01 -0.109246E-01 -0.107148E-01 -0.100024E-01 -0.919454E-02 -0.848574E-02
 -0.789937E-02 -0.746988E-02 -0.733513E-02 -0.767161E-02 -0.854689E-02 -0.981094E-02
 -0.111281E-01 -0.121622E-01 -0.127826E-01 -0.131000E-01 -0.132764E-01 -0.132650E-01
 -0.127555E-01 -0.115119E-01 -0.104289E-01 -0.803987E-02 -0.693934E-02 -0.762868E-02
 -0.949679E-02 -0.112513E-01 -0.119102E-01 -0.114859E-01 -0.106083E-01 -0.978223E-02
 -0.915421E-02 -0.871941E-02 -0.853296E-02 -0.870574E-02 -0.928453E-02 -0.101941E-01
 -0.112607E-01 -0.122636E-01 -0.130342E-01 -0.135730E-01 -0.140124E-01 -0.143377E-01
 -0.141310E-01 -0.128117E-01 -0.104289E-01 -0.731275E-02 -0.511449E-02 -0.497388E-02
 -0.676159E-02 -0.934161E-02 -0.111847E-01 -0.115514E-01 -0.108877E-01 -0.999132E-02
 -0.928145E-02 -0.880831E-02 -0.856293E-02 -0.860625E-02 -0.897184E-02 -0.959777E-02
 -0.103850E-01 -0.112323E-01 -0.120189E-01 -0.126747E-01 -0.132674E-01 -0.138399E-01
 -0.140369E-01 -0.130675E-01 -0.105248E-01 -0.731275E-02 -0.362095E-02 -0.254972E-02
 -0.347090E-02 -0.582549E-02 -0.835279E-02 -0.973237E-02 -0.972713E-02 -0.904538E-02
 -0.836239E-02 -0.790005E-02 -0.764009E-02 -0.759348E-02 -0.779996E-02 -0.822115E-02
 -0.877436E-02 -0.941334E-02 -0.100882E-01 -0.107172E-01 -0.112927E-01 -0.118801E-01
 -0.122983E-01 -0.118392E-01 -0.976081E-02 -0.647110E-02 -0.362095E-02 -0.949063E-03
 -0.963784E-03 -0.224060E-02 -0.433569E-02 -0.622096E-02 -0.705333E-02 -0.696138E-02
 -0.656027E-02 -0.624579E-02 -0.607958E-02 -0.604011E-02 -0.616140E-02 -0.644762E-02
 -0.683336E-02 -0.727545E-02 -0.776822E-02 -0.826208E-02 -0.869889E-02 -0.910710E-02
 -0.944603E-02 -0.927724E-02 -0.788164E-02 -0.519834E-02 -0.244353E-02 -0.949063E-03
  0.159113E-13 -0.218311E-03 -0.101984E-02 -0.234736E-02 -0.353059E-02 -0.409583E-02
 -0.418876E-02 -0.416611E-02 -0.419680E-02 -0.427549E-02 -0.441235E-02 -0.464093E-02
 -0.493060E-02 -0.522943E-02 -0.553887E-02 -0.585590E-02 -0.612372E-02 -0.631890E-02
 -0.644860E-02 -0.631253E-02 -0.543261E-02 -0.359925E-02 -0.153319E-02 -0.295892E-03
  0.159113E-13  0.676193E-03  0.888115E-03 -0.144171E-02 -0.229747E-02 -0.292374E-02
 -0.309013E-02 -0.301551E-02 -0.296156E-02 -0.298583E-02 -0.306536E-02 -0.321468E-02
 -0.342145E-02 -0.362150E-02 -0.378477E-02 -0.392450E-02 -0.401121E-02 -0.398416E-02
 -0.383140E-02 -0.351146E-02 -0.283463E-02 -0.169622E-02 -0.522748E-03  0.586125E-04
  0.345279E-03  0.676193E-03  0.216006E-02  0.146408E-02  0.115771E-02 -0.128602E-02
 -0.145086E-02 -0.148974E-02 -0.152871E-02 -0.164994E-02 -0.181416E-02 -0.200058E-02
 -0.221051E-02 -0.239687E-02 -0.250862E-02 -0.255796E-02 -0.256476E-02 -0.249976E-02
 -0.234719E-02 -0.212725E-02 -0.178527E-02  0.125869E-02  0.814366E-03  0.100325E-02
  0.184844E-02  0.245652E-02  0.216006E-02  0.519407E-02  0.333927E-02  0.199560E-02
  0.123838E-02  0.806215E-03 -0.608970E-03 -0.641480E-03 -0.809637E-03 -0.101739E-02
 -0.123562E-02 -0.143144E-02 -0.154535E-02 -0.156472E-02 -0.153073E-02 -0.146443E-02
 -0.137419E-02 -0.132828E-02  0.141192E-02  0.165220E-02  0.218012E-02  0.333040E-02
  0.511041E-02  0.660644E-02  0.664807E-02  0.519407E-02  0.894983E-02  0.575885E-02
  0.325093E-02  0.157529E-02  0.609470E-03 -0.217079E-03 -0.198061E-03 -0.342943E-03
 -0.537444E-03 -0.730293E-03 -0.863276E-03 -0.898178E-03 -0.863057E-03 -0.811355E-03
 -0.787465E-03  0.888192E-03  0.130259E-02  0.222242E-02  0.378749E-02  0.613368E-02
  0.915514E-02  0.119809E-01  0.131554E-01  0.119010E-01  0.894983E-02  0.115007E-01
  0.721674E-02  0.389606E-02  0.172269E-02  0.551794E-03  0.938809E-04 -0.294260E-04
 -0.131575E-03 -0.285301E-03 -0.419443E-03 -0.480773E-03 -0.469227E-03 -0.437762E-03
 -0.455448E-03  0.629828E-03  0.117489E-02  0.239527E-02  0.456469E-02  0.781123E-02
  0.119484E-01  0.161405E-01  0.188655E-01  0.187820E-01  0.158781E-01  0.115007E-01
  0.117478E-01  0.712242E-02  0.371996E-02  0.160768E-02  0.518446E-03  0.866006E-04
 -0.218004E-05 -0.682714E-04 -0.171454E-03 -0.241829E-03 -0.254904E-03 -0.241305E-03
  0.271235E-03  0.453165E-03  0.978049E-03  0.214961E-02  0.432000E-02  0.773096E-02
  0.122888E-01  0.172915E-01  0.213389E-01  0.228578E-01  0.211359E-01  0.168964E-01
  0.117478E-01  0.102457E-01  0.604131E-02  0.310940E-02  0.135467E-02  0.461369E-03
  0.103324E-03  0.290083E-04 -0.699791E-04 -0.124824E-03 -0.147884E-03 -0.143970E-03
  0.163595E-03  0.304803E-03  0.730534E-03  0.169060E-02  0.350867E-02  0.648597E-02
  0.106908E-01  0.156760E-01  0.203291E-01  0.231615E-01  0.230745E-01  0.200782E-01
  0.152970E-01  0.102457E-01  0.811543E-02  0.468661E-02  0.238839E-02  0.104390E-02
  0.372926E-03  0.115811E-03  0.669311E-04 -0.865445E-04 -0.103335E-03 -0.100042E-03
  0.100453E-03  0.176548E-03  0.463699E-03  0.116429E-02  0.253846E-02  0.486527E-02
  0.831202E-02  0.126888E-01  0.172403E-01  0.207501E-01  0.220534E-01  0.206699E-01
  0.170924E-01  0.124999E-01  0.811543E-02  0.601988E-02  0.339422E-02  0.169806E-02
  0.740883E-03  0.289099E-03  0.130170E-03 -0.993470E-04 -0.983137E-04 -0.886339E-04
 -0.711062E-04  0.852454E-04  0.228707E-03  0.663919E-03  0.160199E-02  0.327871E-02
  0.589033E-02  0.942662E-02  0.134572E-01  0.170925E-01  0.192820E-01  0.193115E-01
  0.171741E-01  0.135737E-01  0.955822E-02  0.601988E-02  0.418239E-02  0.229287E-02
  0.113161E-02  0.514145E-03  0.243433E-03  0.152493E-03 -0.126728E-03 -0.107236E-03
 -0.754251E-04 -0.442789E-04  0.707538E-04  0.270114E-03  0.810017E-03  0.189029E-02
  0.370650E-02  0.635280E-02  0.965214E-02  0.130354E-01  0.156492E-01  0.167075E-01
  0.158755E-01  0.134388E-01  0.101536E-01  0.687137E-02  0.418239E-02  0.272742E-02
  0.148156E-02  0.761301E-03  0.402437E-03  0.253656E-03 -0.201603E-03 -0.173979E-03
 -0.133508E-03 -0.732251E-04 -0.196470E-04  0.414135E-04  0.254721E-03  0.818691E-03
  0.191330E-02  0.368198E-02  0.612135E-02  0.895117E-02  0.115784E-01  0.132682E-01
  0.134842E-01  0.121779E-01  0.980859E-02  0.708152E-02  0.461122E-02  0.272742E-02
  0.176992E-02  0.103178E-02  0.628523E-03 -0.437519E-03 -0.361844E-03 -0.330207E-03
 -0.290898E-03 -0.217910E-03 -0.117531E-03 -0.256141E-04  0.804076E-05  0.171236E-03
  0.661290E-03  0.162916E-02  0.316358E-02  0.520111E-02  0.743662E-02  0.932235E-02
  0.102653E-01  0.995860E-02  0.856996E-02  0.660733E-02  0.461424E-02  0.295488E-02
  0.176992E-02  0.137843E-02  0.986295E-03 -0.775237E-03 -0.675672E-03 -0.635070E-03
 -0.602255E-03 -0.534684E-03 -0.419670E-03 -0.273114E-03 -0.124573E-03 -0.253391E-04
  0.697657E-04  0.386385E-03  0.109301E-02  0.224442E-02  0.376757E-02  0.538363E-02
  0.662771E-02  0.707614E-02  0.662902E-02  0.554729E-02  0.423027E-02  0.300016E-02
  0.203409E-02  0.137843E-02 -0.157401E-02 -0.136687E-02 -0.123657E-02 -0.116447E-02
 -0.112311E-02 -0.106782E-02 -0.966274E-03 -0.816478E-03 -0.627184E-03 -0.406945E-03
 -0.189831E-03 -0.573786E-04  0.118520E-03  0.470835E-03  0.116766E-02  0.215937E-02
  0.322604E-02  0.403073E-02  0.433014E-02  0.412775E-02  0.360377E-02  0.296267E-02
  0.236192E-02  0.189369E-02 -0.157401E-02 -0.231255E-02 -0.214722E-02 -0.201447E-02
 -0.192965E-02 -0.187030E-02 -0.179397E-02 -0.167621E-02 -0.150977E-02 -0.128113E-02
 -0.977539E-03 -0.620767E-03 -0.280847E-03 -0.550782E-04  0.417107E-04  0.312359E-03
  0.860674E-03  0.156358E-02  0.223288E-02  0.272412E-02  0.297919E-02  0.300727E-02
  0.287571E-02 -0.268157E-02 -0.249025E-02 -0.231255E-02 -0.348086E-02 -0.327478E-02
 -0.310934E-02 -0.300680E-02 -0.294298E-02 -0.287763E-02 -0.277593E-02 -0.260362E-02
 -0.232593E-02 -0.192622E-02 -0.142758E-02 -0.897045E-03 -0.431932E-03 -0.140613E-03
 -0.120752E-03  0.429050E-03  0.104728E-02  0.186448E-02  0.269141E-02 -0.333276E-02
 -0.369567E-02 -0.381989E-02 -0.379305E-02 -0.366985E-02 -0.348086E-02 -0.495448E-02
 -0.468153E-02 -0.446307E-02 -0.434310E-02 -0.432257E-02 -0.434381E-02 -0.430772E-02
 -0.412847E-02 -0.377410E-02 -0.326260E-02 -0.264295E-02 -0.198951E-02 -0.140160E-02
 -0.997684E-03 -0.906629E-03 -0.123739E-02 -0.200312E-02 -0.304672E-02 -0.407974E-02
 -0.485210E-02 -0.528521E-02 -0.543799E-02 -0.539459E-02 -0.521490E-02 -0.495448E-02
 -0.651387E-02 -0.606327E-02 -0.569668E-02 -0.558535E-02 -0.575960E-02 -0.603431E-02
 -0.614304E-02 -0.594306E-02 -0.546960E-02 -0.483442E-02 -0.413450E-02 -0.344978E-02
 -0.287762E-02 -0.254752E-02 -0.260161E-02 -0.312949E-02 -0.407240E-02 -0.519235E-02
 -0.618813E-02 -0.686677E-02 -0.720395E-02 -0.727443E-02 -0.715882E-02 -0.689904E-02
 -0.651387E-02 -0.755086E-02 -0.666115E-02 -0.610471E-02 -0.622744E-02 -0.692122E-02
 -0.767050E-02 -0.797097E-02 -0.769848E-02 -0.706220E-02 -0.631229E-02 -0.558472E-02
 -0.495142E-02 -0.450900E-02 -0.438674E-02 -0.468274E-02 -0.538996E-02 -0.636471E-02
 -0.737109E-02 -0.818638E-02 -0.869706E-02 -0.892037E-02 -0.893469E-02 -0.876233E-02
 -0.831938E-02 -0.755086E-02 -0.717668E-02 -0.580423E-02 -0.539714E-02 -0.620638E-02
 -0.771347E-02 -0.898014E-02 -0.936093E-02 -0.891881E-02 -0.811332E-02 -0.730081E-02
 -0.660889E-02 -0.609145E-02 -0.584363E-02 -0.595768E-02 -0.643557E-02 -0.718145E-02
 -0.804877E-02 -0.887222E-02 -0.950528E-02 -0.989058E-02 -0.100742E-01 -0.100717E-01
 -0.970417E-02 -0.870663E-02 -0.717668E-02 -0.517823E-02 -0.390963E-02 -0.424410E-02
 -0.598477E-02 -0.818353E-02 -0.964929E-02 -0.985288E-02 -0.918566E-02 -0.829383E-02
 -0.752194E-02 -0.694032E-02 -0.658786E-02 -0.654303E-02 -0.682529E-02 -0.735475E-02
 -0.802706E-02 -0.875026E-02 -0.941026E-02 -0.990376E-02 -0.102253E-01 -0.103988E-01
 -0.102336E-01 -0.928120E-02 -0.736403E-02 -0.517823E-02 -0.262845E-02 -0.222962E-02
 -0.346375E-02 -0.579394E-02 -0.811067E-02 -0.928410E-02 -0.914542E-02 -0.835899E-02
 -0.755301E-02 -0.694502E-02 -0.654333E-02 -0.638160E-02 -0.650031E-02 -0.684995E-02
 -0.733510E-02 -0.789826E-02 -0.848098E-02 -0.898167E-02 -0.934398E-02 -0.959219E-02
 -0.961308E-02 -0.894249E-02 -0.712707E-02 -0.458731E-02 -0.262845E-02 -0.887932E-03
 -0.140581E-02 -0.301439E-02 -0.524154E-02 -0.707147E-02 -0.771225E-02 -0.736082E-02
 -0.669611E-02 -0.614665E-02 -0.578569E-02 -0.559845E-02 -0.561674E-02 -0.583367E-02
 -0.616993E-02 -0.656683E-02 -0.700378E-02 -0.741629E-02 -0.771944E-02 -0.790791E-02
 -0.795501E-02 -0.754719E-02 -0.617139E-02 -0.387768E-02 -0.175160E-02 -0.887932E-03
 -0.327110E-03 -0.105746E-02 -0.233751E-02 -0.393722E-02 -0.508323E-02 -0.536422E-02
 -0.508693E-02 -0.472893E-02 -0.449783E-02 -0.438763E-02 -0.439801E-02 -0.454769E-02
 -0.479021E-02 -0.505831E-02 -0.533827E-02 -0.561270E-02 -0.580704E-02 -0.587384E-02
 -0.581442E-02 -0.548580E-02 -0.452606E-02 -0.281041E-02 -0.103309E-02 -0.175497E-03
 -0.327110E-03  0.676193E-03  0.888115E-03 -0.144171E-02 -0.229747E-02 -0.292374E-02
 -0.309013E-02 -0.301551E-02 -0.296156E-02 -0.298583E-02 -0.306536E-02 -0.321468E-02
 -0.342145E-02 -0.362150E-02 -0.378477E-02 -0.392450E-02 -0.401121E-02 -0.398416E-02
 -0.383140E-02 -0.351146E-02 -0.283463E-02 -0.169622E-02 -0.522748E-03  0.586125E-04
  0.345279E-03  0.676193E-03  0.248510E-02  0.232314E-02 -0.238465E-02 -0.257331E-02
 -0.255378E-02 -0.232089E-02 -0.210535E-02 -0.202220E-02 -0.203743E-02 -0.212504E-02
 -0.227279E-02 -0.241851E-02 -0.249920E-02 -0.251684E-02 -0.247992E-02 -0.234202E-02
 -0.206282E-02 -0.165402E-02 -0.111087E-02 -0.469744E-03  0.550402E-04  0.376925E-03
  0.141012E-02  0.231440E-02  0.248510E-02  0.381822E-02  0.285152E-02  0.220791E-02
  0.180294E-02 -0.144062E-02 -0.116797E-02 -0.107882E-02 -0.112913E-02 -0.124450E-02
 -0.140010E-02 -0.155642E-02 -0.164375E-02 -0.163956E-02 -0.157357E-02 -0.144778E-02
 -0.123839E-02 -0.974707E-03  0.724674E-03  0.549325E-03  0.646445E-03  0.139633E-02
  0.284790E-02  0.422312E-02  0.455091E-02  0.381822E-02  0.608448E-02  0.415713E-02
  0.263520E-02  0.153712E-02  0.822918E-03 -0.496977E-03 -0.461424E-03 -0.561809E-03
 -0.712525E-03 -0.873629E-03 -0.984889E-03 -0.100006E-02 -0.937545E-03 -0.834373E-03
 -0.703692E-03 -0.594843E-03  0.643060E-03  0.999970E-03  0.180575E-02  0.325658E-02
  0.537717E-02  0.752692E-02  0.856036E-02  0.788961E-02  0.608448E-02  0.833072E-02
  0.536793E-02  0.301111E-02  0.140064E-02  0.509022E-03 -0.172895E-03 -0.147632E-03
 -0.249237E-03 -0.390979E-03 -0.513853E-03 -0.562264E-03 -0.528742E-03 -0.455076E-03
 -0.386475E-03  0.390245E-03  0.628399E-03  0.134544E-02  0.275728E-02  0.498437E-02
  0.795196E-02  0.110844E-01  0.132176E-01  0.133041E-01  0.113404E-01  0.833072E-02
  0.919761E-02  0.560128E-02  0.290818E-02  0.121773E-02  0.364781E-03  0.571606E-04
 -0.262223E-04 -0.108275E-03 -0.214542E-03 -0.282517E-03 -0.283688E-03 -0.242090E-03
 -0.213114E-03  0.275493E-03  0.581054E-03  0.138947E-02  0.299796E-02  0.560061E-02
  0.913723E-02  0.130887E-01  0.163564E-01  0.176576E-01  0.163993E-01  0.131591E-01
  0.919761E-02  0.843295E-02  0.491502E-02  0.245909E-02  0.100760E-02  0.297738E-03
  0.377947E-04 -0.581538E-05 -0.629395E-04 -0.124758E-03 -0.147145E-03 -0.131557E-03
 -0.121597E-03  0.195714E-03  0.485911E-03  0.121019E-02  0.265812E-02  0.509175E-02
  0.857281E-02  0.127463E-01  0.166965E-01  0.191483E-01  0.191305E-01  0.166410E-01
  0.126493E-01  0.843295E-02  0.682262E-02  0.387251E-02  0.191401E-02  0.788641E-03
  0.243925E-03  0.478629E-04 -0.244893E-04 -0.564950E-04 -0.802405E-04 -0.782092E-04
  0.724143E-04  0.125394E-03  0.349459E-03  0.917635E-03  0.206211E-02  0.403362E-02
  0.698414E-02  0.107641E-01  0.147370E-01  0.178358E-01  0.189999E-01  0.177807E-01
  0.146318E-01  0.106212E-01  0.682262E-02  0.511773E-02  0.284515E-02  0.138716E-02
  0.571109E-03  0.191344E-03  0.643277E-04 -0.486150E-04 -0.577785E-04 -0.567811E-04
 -0.475837E-04  0.674942E-04  0.201758E-03  0.589063E-03  0.141173E-02  0.287575E-02
  0.515312E-02  0.823924E-02  0.117676E-01  0.149613E-01  0.168798E-01  0.168733E-01
  0.149419E-01  0.117372E-01  0.820316E-02  0.511773E-02  0.361366E-02  0.195601E-02
  0.935151E-03  0.391774E-03  0.155710E-03  0.806913E-04 -0.648563E-04 -0.563064E-04
 -0.404958E-04  0.316944E-04  0.825624E-04  0.295273E-03  0.814907E-03  0.181114E-02
  0.344666E-02  0.579254E-02  0.868191E-02  0.116108E-01  0.138396E-01  0.146993E-01
  0.139157E-01  0.117469E-01  0.885244E-02  0.597124E-02  0.361366E-02  0.239291E-02
  0.126497E-02  0.607510E-03  0.278609E-03  0.142932E-03 -0.970558E-04 -0.774233E-04
 -0.546769E-04 -0.256709E-04  0.158848E-04  0.890995E-04  0.350363E-03  0.936962E-03
  0.199704E-02  0.363787E-02  0.582595E-02  0.828275E-02  0.104859E-01  0.118401E-01
  0.119402E-01  0.107646E-01  0.868442E-02  0.628070E-02  0.408357E-02  0.239291E-02
  0.151394E-02  0.811970E-03  0.423982E-03  0.239127E-03 -0.164944E-03 -0.135746E-03
 -0.110234E-03 -0.702942E-04 -0.226539E-04  0.121250E-05  0.703582E-04  0.327942E-03
  0.897865E-03  0.189741E-02  0.337266E-02  0.521768E-02  0.712599E-02  0.864046E-02
  0.932427E-02  0.897318E-02  0.772231E-02  0.596580E-02  0.415592E-02  0.262430E-02
  0.151394E-02  0.101021E-02  0.610421E-03  0.397458E-03 -0.300862E-03 -0.264133E-03
 -0.242115E-03 -0.203867E-03 -0.140740E-03 -0.666138E-04 -0.138976E-04  0.390833E-04
  0.230336E-03  0.693106E-03  0.150800E-02  0.267829E-02  0.408133E-02  0.544429E-02
  0.639988E-02  0.665120E-02  0.614427E-02  0.508932E-02  0.381835E-02  0.262146E-02
  0.166883E-02  0.101021E-02  0.891473E-03 -0.676766E-03 -0.561316E-03 -0.510198E-03
 -0.488567E-03 -0.461635E-03 -0.407221E-03 -0.322335E-03 -0.216080E-03 -0.109330E-03
 -0.490118E-04  0.112837E-03  0.385716E-03  0.923717E-03  0.172313E-02  0.268462E-02
  0.359092E-02  0.416997E-02  0.424864E-02  0.385853E-02  0.318487E-02  0.243634E-02
  0.176377E-02  0.124444E-02  0.891473E-03 -0.115186E-02 -0.101796E-02 -0.934347E-03
 -0.892748E-03 -0.870696E-03 -0.840546E-03 -0.782920E-03 -0.686375E-03 -0.544035E-03
 -0.364226E-03 -0.185859E-03 -0.762645E-04  0.109051E-03  0.340477E-03  0.785045E-03
  0.138066E-02  0.197736E-02  0.240068E-02  0.255438E-02  0.245846E-02  0.220249E-02
  0.188609E-02  0.158549E-02 -0.133904E-02 -0.115186E-02 -0.173574E-02 -0.160185E-02
 -0.151153E-02 -0.147114E-02 -0.146286E-02 -0.145639E-02 -0.141738E-02 -0.131382E-02
 -0.112625E-02 -0.858582E-03 -0.545011E-03 -0.248369E-03 -0.472154E-04  0.141337E-04
  0.188883E-03  0.554484E-03  0.103250E-02  0.150939E-02  0.188125E-02  0.209351E-02
  0.215536E-02 -0.211513E-02 -0.201717E-02 -0.188436E-02 -0.173574E-02 -0.255242E-02
 -0.239018E-02 -0.229650E-02 -0.228551E-02 -0.233787E-02 -0.239767E-02 -0.239172E-02
 -0.226799E-02 -0.201320E-02 -0.164307E-02 -0.119688E-02 -0.743606E-03 -0.375551E-03
 -0.183123E-03 -0.231917E-03 -0.545288E-03 -0.107833E-02 -0.170578E-02 -0.227053E-02
 -0.266983E-02 -0.288770E-02 -0.295193E-02 -0.289133E-02 -0.273999E-02 -0.255242E-02
 -0.350192E-02 -0.329795E-02 -0.320697E-02 -0.327807E-02 -0.347661E-02 -0.366795E-02
 -0.370596E-02 -0.353168E-02 -0.317331E-02 -0.268681E-02 -0.213197E-02 -0.158907E-02
 -0.116158E-02 -0.952886E-03 -0.104071E-02 -0.144546E-02 -0.209080E-02 -0.281084E-02
 -0.343437E-02 -0.386562E-02 -0.408442E-02 -0.410756E-02 -0.397505E-02 -0.374979E-02
 -0.350192E-02 -0.431748E-02 -0.398375E-02 -0.390346E-02 -0.418678E-02 -0.469902E-02
 -0.512421E-02 -0.521287E-02 -0.494177E-02 -0.443925E-02 -0.383435E-02 -0.321288E-02
 -0.266028E-02 -0.228476E-02 -0.218774E-02 -0.241743E-02 -0.293640E-02 -0.362238E-02
 -0.431493E-02 -0.487794E-02 -0.523091E-02 -0.535133E-02 -0.526924E-02 -0.504086E-02
 -0.470932E-02 -0.431748E-02 -0.442434E-02 -0.390925E-02 -0.401313E-02 -0.477930E-02
 -0.580688E-02 -0.652399E-02 -0.661607E-02 -0.618675E-02 -0.552241E-02 -0.482748E-02
 -0.419493E-02 -0.370481E-02 -0.346025E-02 -0.352877E-02 -0.388798E-02 -0.444247E-02
 -0.507535E-02 -0.567117E-02 -0.611951E-02 -0.634513E-02 -0.634549E-02 -0.615991E-02
 -0.578241E-02 -0.516973E-02 -0.442434E-02 -0.343553E-02 -0.304303E-02 -0.370395E-02
 -0.516034E-02 -0.670054E-02 -0.757312E-02 -0.753314E-02 -0.690387E-02 -0.611977E-02
 -0.540522E-02 -0.482839E-02 -0.445728E-02 -0.437147E-02 -0.457460E-02 -0.498058E-02
 -0.549187E-02 -0.603389E-02 -0.651373E-02 -0.682284E-02 -0.691229E-02 -0.679999E-02
 -0.644595E-02 -0.569873E-02 -0.454752E-02 -0.343553E-02 -0.193735E-02 -0.219731E-02
 -0.355965E-02 -0.551234E-02 -0.721580E-02 -0.792764E-02 -0.762481E-02 -0.684389E-02
 -0.605505E-02 -0.542124E-02 -0.497000E-02 -0.475438E-02 -0.480964E-02 -0.507650E-02
 -0.545606E-02 -0.589053E-02 -0.632617E-02 -0.665952E-02 -0.680205E-02 -0.674655E-02
 -0.645870E-02 -0.573773E-02 -0.441824E-02 -0.286590E-02 -0.193735E-02 -0.107612E-02
 -0.205203E-02 -0.371639E-02 -0.563260E-02 -0.701776E-02 -0.732115E-02 -0.678564E-02
 -0.601283E-02 -0.536463E-02 -0.490329E-02 -0.462934E-02 -0.457663E-02 -0.472712E-02
 -0.499155E-02 -0.530335E-02 -0.563629E-02 -0.592239E-02 -0.605854E-02 -0.600545E-02
 -0.575351E-02 -0.514908E-02 -0.395261E-02 -0.233964E-02 -0.114587E-02 -0.107612E-02
 -0.121630E-02 -0.231784E-02 -0.368502E-02 -0.509507E-02 -0.590354E-02 -0.583560E-02
 -0.526810E-02 -0.468448E-02 -0.427486E-02 -0.402835E-02 -0.394228E-02 -0.402249E-02
 -0.420748E-02 -0.441827E-02 -0.463118E-02 -0.482186E-02 -0.490608E-02 -0.481396E-02
 -0.453966E-02 -0.401670E-02 -0.306317E-02 -0.171560E-02 -0.611578E-03 -0.479031E-03
 -0.121630E-02  0.178835E-02 -0.238104E-02 -0.311389E-02 -0.387407E-02 -0.418866E-02
 -0.397366E-02 -0.356366E-02 -0.325100E-02 -0.308567E-02 -0.303547E-02 -0.310062E-02
 -0.325063E-02 -0.340652E-02 -0.352693E-02 -0.361557E-02 -0.363376E-02 -0.350518E-02
 -0.320299E-02 -0.271643E-02 -0.196516E-02 -0.971683E-03 -0.180702E-03 -0.214450E-03
  0.995272E-03  0.178835E-02  0.248510E-02  0.232314E-02 -0.238465E-02 -0.257331E-02
 -0.255378E-02 -0.232089E-02 -0.210535E-02 -0.202220E-02 -0.203743E-02 -0.212504E-02
 -0.227279E-02 -0.241851E-02 -0.249920E-02 -0.251684E-02 -0.247992E-02 -0.234202E-02
 -0.206282E-02 -0.165402E-02 -0.111087E-02 -0.469744E-03  0.550402E-04  0.376925E-03
  0.141012E-02  0.231440E-02  0.248510E-02  0.489739E-02  0.413297E-02  0.346523E-02
 -0.285020E-02 -0.222330E-02 -0.171781E-02 -0.144157E-02 -0.134861E-02 -0.136433E-02
 -0.145498E-02 -0.156731E-02 -0.162151E-02 -0.158727E-02 -0.148626E-02 -0.131299E-02
 -0.103277E-02 -0.662656E-03 -0.290046E-03  0.547288E-04  0.239658E-03  0.122376E-02
  0.297152E-02  0.464999E-02  0.530421E-02  0.489739E-02  0.566264E-02  0.425117E-02
  0.303290E-02  0.203025E-02 -0.128910E-02 -0.881238E-03 -0.748288E-03 -0.762569E-03
 -0.850370E-03 -0.969213E-03 -0.105098E-02 -0.104185E-02 -0.951980E-03 -0.807803E-03
 -0.605908E-03 -0.368601E-03  0.206193E-03  0.283001E-03  0.800608E-03  0.201600E-02
  0.397115E-02  0.604789E-02  0.719423E-02  0.690476E-02  0.566264E-02  0.673212E-02
  0.458534E-02  0.278417E-02  0.147014E-02  0.697035E-03 -0.379709E-03 -0.327994E-03
 -0.392172E-03 -0.502160E-03 -0.601732E-03 -0.630863E-03 -0.574966E-03 -0.465679E-03
 -0.330992E-03 -0.208789E-03  0.220263E-03  0.574121E-03  0.148128E-02  0.310037E-02
  0.543150E-02  0.801721E-02  0.987639E-02  0.101483E-01  0.884435E-02  0.673212E-02
  0.730839E-02  0.456337E-02  0.243679E-02  0.106574E-02  0.371293E-03 -0.128371E-03
 -0.111330E-03 -0.186099E-03 -0.281003E-03 -0.337558E-03 -0.323164E-03 -0.254027E-03
 -0.171400E-03  0.129103E-03  0.242995E-03  0.730303E-03  0.184854E-02  0.377506E-02
  0.649202E-02  0.961458E-02  0.122698E-01  0.134230E-01  0.126019E-01  0.102514E-01
  0.730839E-02  0.683745E-02  0.398896E-02  0.197259E-02  0.783669E-03  0.220704E-03
  0.320993E-04 -0.256965E-04 -0.877290E-04 -0.147908E-03 -0.163799E-03 -0.132307E-03
 -0.876588E-04  0.896224E-04  0.242402E-03  0.731675E-03  0.181093E-02  0.370665E-02
  0.647705E-02  0.984812E-02  0.130884E-01  0.151539E-01  0.152380E-01  0.133289E-01
  0.101948E-01  0.683745E-02  0.562044E-02  0.314897E-02  0.151154E-02  0.585893E-03
  0.154411E-03  0.122220E-04 -0.919419E-05 -0.481761E-04 -0.735657E-04 -0.672001E-04
 -0.465628E-04  0.627095E-04  0.206736E-03  0.625610E-03  0.152406E-02  0.312223E-02
  0.555241E-02  0.869827E-02  0.120409E-01  0.146846E-01  0.157149E-01  0.147349E-01
  0.121269E-01  0.879090E-02  0.562044E-02  0.424850E-02  0.232784E-02  0.110273E-02
  0.424907E-03  0.116623E-03  0.207389E-04 -0.178783E-04 -0.338083E-04 -0.365470E-04
 -0.272386E-04  0.384347E-04  0.142037E-03  0.454912E-03  0.113384E-02  0.235706E-02
  0.427257E-02  0.688186E-02  0.988567E-02  0.126281E-01  0.142893E-01  0.142888E-01
  0.126254E-01  0.987762E-02  0.686573E-02  0.424850E-02  0.303027E-02  0.162145E-02
  0.753426E-03  0.291708E-03  0.933768E-04  0.346431E-04 -0.277505E-04 -0.269149E-04
 -0.195505E-04  0.194564E-04  0.734663E-04  0.269342E-03  0.729850E-03  0.159704E-02
  0.300540E-02  0.501253E-02  0.747814E-02  0.997644E-02  0.118733E-01  0.125874E-01
  0.118826E-01  0.999329E-02  0.749994E-02  0.503681E-02  0.303027E-02  0.203668E-02