 CRYSTAL
 PRIMVEC
   -2.700867567    0.000000000    2.700867567
    0.000000000    2.700867567    2.700867567
   -2.700867567    2.700867567    0.000000000
 PRIMCOORD
           2           1
Si        0.000000000    0.000000000    0.000000000
Si        1.350433783    1.350433783    1.350433783
BEGIN_BLOCK_DATAGRID_3D
3D_PWSCF
BEGIN_DATAGRID_3D_UNKNOWN
          25          25          25
  0.000000  0.000000  0.000000
   -2.700868    0.000000    2.700868
    0.000000    2.700868    2.700868
   -2.700868    2.700868    0.000000
  0.455434E-13 -0.253309E-03 -0.132949E-02 -0.307786E-02 -0.461128E-02 -0.531780E-02
 -0.532773E-02 -0.500587E-02 -0.452649E-02 -0.391984E-02 -0.322293E-02 -0.249313E-02
 -0.177650E-02 -0.112660E-02 -0.607075E-03 -0.249957E-03 -0.519198E-04  0.676251E-05
  0.800245E-04  0.170254E-03  0.194475E-03  0.170780E-03  0.137390E-03  0.731511E-04
  0.455434E-13 -0.280257E-03 -0.632387E-03 -0.163449E-02 -0.293021E-02 -0.383707E-02
 -0.411343E-02 -0.397268E-02 -0.364153E-02 -0.320184E-02 -0.268838E-02 -0.214558E-02
 -0.160471E-02 -0.109059E-02 -0.648782E-03 -0.322253E-03 -0.120071E-03 -0.407478E-04
 -0.851052E-04  0.202270E-03  0.293521E-03  0.325643E-03 -0.336451E-03 -0.336020E-03
 -0.294876E-03 -0.280257E-03 -0.144122E-02 -0.170822E-02 -0.230276E-02 -0.290478E-02
 -0.318373E-02 -0.313066E-02 -0.289455E-02 -0.256826E-02 -0.218915E-02 -0.179267E-02
 -0.140247E-02 -0.102227E-02 -0.670154E-03 -0.387969E-03 -0.203234E-03 -0.119796E-03
 -0.149141E-03 -0.298648E-03 -0.520899E-03 -0.753371E-03 -0.988689E-03 -0.121636E-02
 -0.137567E-02 -0.141866E-02 -0.144122E-02 -0.330981E-02 -0.309904E-02 -0.298686E-02
 -0.287188E-02 -0.267214E-02 -0.240763E-02 -0.211273E-02 -0.180109E-02 -0.149222E-02
 -0.120553E-02 -0.937158E-03 -0.678672E-03 -0.451061E-03 -0.291825E-03 -0.221375E-03
 -0.252682E-03 -0.416693E-03 -0.739195E-03 -0.120725E-02 -0.179897E-02 -0.247544E-02
 -0.310356E-02 -0.348803E-02 -0.352069E-02 -0.330981E-02 -0.494483E-02 -0.407667E-02
 -0.332123E-02 -0.272533E-02 -0.226187E-02 -0.189058E-02 -0.157318E-02 -0.129342E-02
 -0.105576E-02 -0.856736E-03 -0.677231E-03 -0.511051E-03 -0.383251E-03 -0.328028E-03
 -0.369311E-03 -0.537728E-03 -0.887835E-03 -0.147671E-02 -0.233268E-02 -0.343153E-02
 -0.462272E-02 -0.558727E-02 -0.598419E-02 -0.569903E-02 -0.494483E-02 -0.568838E-02
 -0.437010E-02 -0.328192E-02 -0.248015E-02 -0.191467E-02 -0.150973E-02 -0.120579E-02
 -0.973768E-03 -0.800465E-03 -0.667853E-03 -0.556515E-03 -0.467496E-03 -0.428260E-03
 -0.474835E-03 -0.643326E-03 -0.984746E-03 -0.157595E-02 -0.249714E-02 -0.377711E-02
 -0.531143E-02 -0.678334E-02 -0.772397E-02 -0.777949E-02 -0.697401E-02 -0.568838E-02
 -0.566893E-02 -0.419983E-02 -0.302765E-02 -0.218047E-02 -0.160161E-02 -0.121394E-02
 -0.952186E-03 -0.774704E-03 -0.656631E-03 -0.578373E-03 -0.527397E-03 -0.510719E-03
 -0.558957E-03 -0.717038E-03 -0.103894E-02 -0.159384E-02 -0.246530E-02 -0.371543E-02
 -0.530413E-02 -0.699680E-02 -0.835442E-02 -0.890997E-02 -0.846370E-02 -0.722874E-02
 -0.566893E-02 -0.527955E-02 -0.381590E-02 -0.266785E-02 -0.185165E-02 -0.131544E-02
 -0.981266E-03 -0.776271E-03 -0.651922E-03 -0.583125E-03 -0.556366E-03 -0.566095E-03
 -0.624038E-03 -0.767918E-03 -0.105818E-02 -0.156794E-02 -0.237235E-02 -0.352870E-02
 -0.502868E-02 -0.672255E-02 -0.827254E-02 -0.923193E-02 -0.927019E-02 -0.838762E-02
 -0.691189E-02 -0.527955E-02 -0.472030E-02 -0.331758E-02 -0.225104E-02 -0.152128E-02
 -0.106717E-02 -0.803869E-03 -0.657269E-03 -0.583174E-03 -0.563621E-03 -0.592338E-03
 -0.669713E-03 -0.813892E-03 -0.107422E-02 -0.152795E-02 -0.225800E-02 -0.332242E-02
 -0.472105E-02 -0.635282E-02 -0.797098E-02 -0.919711E-02 -0.965890E-02 -0.919808E-02
 -0.797314E-02 -0.635489E-02 -0.472030E-02 -0.403426E-02 -0.274788E-02 -0.181860E-02
 -0.121393E-02 -0.857958E-03 -0.667330E-03 -0.578050E-03 -0.556352E-03 -0.592275E-03
 -0.686616E-03 -0.847547E-03 -0.110281E-02 -0.151280E-02 -0.216154E-02 -0.312271E-02
 -0.441881E-02 -0.598585E-02 -0.763980E-02 -0.906288E-02 -0.987431E-02 -0.980626E-02
 -0.886828E-02 -0.734444E-02 -0.562598E-02 -0.403426E-02 -0.326466E-02 -0.215585E-02
 -0.139836E-02 -0.929661E-03 -0.671820E-03 -0.554360E-03 -0.527293E-03 -0.566291E-03
 -0.668970E-03 -0.845915E-03 -0.111704E-02 -0.151935E-02 -0.211453E-02 -0.297640E-02
 -0.415513E-02 -0.563331E-02 -0.728469E-02 -0.884631E-02 -0.994739E-02 -0.102438E-01
 -0.960910E-02 -0.822367E-02 -0.647076E-02 -0.473479E-02 -0.326466E-02 -0.247470E-02
 -0.157749E-02 -0.998148E-03 -0.663234E-03 -0.504709E-03 -0.467289E-03 -0.512553E-03
 -0.624305E-03 -0.810281E-03 -0.109525E-02 -0.151141E-02 -0.209734E-02 -0.290364E-02
 -0.398436E-02 -0.535782E-02 -0.694850E-02 -0.854523E-02 -0.981518E-02 -0.104008E-01
 -0.100825E-01 -0.891262E-02 -0.720541E-02 -0.537419E-02 -0.374528E-02 -0.247470E-02
 -0.171676E-02 -0.104230E-02 -0.639383E-03 -0.437763E-03 -0.382977E-03 -0.434206E-03
 -0.564063E-03 -0.766369E-03 -0.106253E-02 -0.149110E-02 -0.208787E-02 -0.288257E-02
 -0.391203E-02 -0.520483E-02 -0.671290E-02 -0.824846E-02 -0.950993E-02 -0.101919E-01
 -0.100956E-01 -0.919760E-02 -0.767849E-02 -0.587586E-02 -0.414963E-02 -0.273914E-02
 -0.171676E-02 -0.104894E-02 -0.598427E-03 -0.365176E-03 -0.291405E-03 -0.341040E-03
 -0.490370E-03 -0.724427E-03 -0.104918E-02 -0.149846E-02 -0.211281E-02 -0.291577E-02
 -0.392513E-02 -0.516508E-02 -0.660385E-02 -0.805302E-02 -0.918855E-02 -0.973709E-02
 -0.961693E-02 -0.888446E-02 -0.764190E-02 -0.605503E-02 -0.438580E-02 -0.291217E-02
 -0.179630E-02 -0.104894E-02 -0.535423E-03 -0.288323E-03 -0.202594E-03 -0.244307E-03
 -0.401805E-03 -0.669082E-03 -0.104301E-02 -0.154031E-02 -0.219546E-02 -0.302926E-02
 -0.404174E-02 -0.524161E-02 -0.661531E-02 -0.799623E-02 -0.901830E-02 -0.934600E-02
 -0.896566E-02 -0.812647E-02 -0.703380E-02 -0.574274E-02 -0.431278E-02 -0.292552E-02
 -0.179332E-02 -0.100936E-02 -0.535423E-03 -0.205319E-03 -0.119465E-03 -0.155157E-03
 -0.308798E-03 -0.593163E-03 -0.101609E-02 -0.158222E-02 -0.230812E-02 -0.320604E-02
 -0.425972E-02 -0.544841E-02 -0.676035E-02 -0.808283E-02 -0.907013E-02 -0.928984E-02
 -0.863836E-02 -0.747725E-02 -0.624270E-02 -0.507803E-02 -0.391119E-02 -0.273318E-02
 -0.168776E-02 -0.920134E-03 -0.448898E-03 -0.205319E-03 -0.517994E-04 -0.891771E-04
 -0.233114E-03 -0.511993E-03 -0.962379E-03 -0.159872E-02 -0.241615E-02 -0.340273E-02
 -0.452708E-02 -0.574262E-02 -0.701741E-02 -0.828306E-02 -0.928356E-02 -0.957369E-02
 -0.887825E-02 -0.745276E-02 -0.588107E-02 -0.454147E-02 -0.343114E-02 -0.242008E-02
 -0.150592E-02 -0.797165E-03 -0.350862E-03 -0.125240E-03 -0.517994E-04  0.637696E-04
 -0.192706E-03 -0.434746E-03 -0.866327E-03 -0.155065E-02 -0.248196E-02 -0.359585E-02
 -0.481197E-02 -0.606212E-02 -0.730607E-02 -0.850332E-02 -0.949792E-02 -0.993491E-02
 -0.944731E-02 -0.805095E-02 -0.623767E-02 -0.456092E-02 -0.323886E-02 -0.219734E-02
 -0.134087E-02 -0.683171E-03 -0.265720E-03 -0.651280E-04 -0.154941E-04  0.637696E-04
  0.193776E-03  0.361454E-03 -0.690681E-03 -0.133540E-02 -0.236493E-02 -0.367959E-02
 -0.507664E-02 -0.639329E-02 -0.758091E-02 -0.865359E-02 -0.955778E-02 -0.100683E-01
 -0.985429E-02 -0.875513E-02 -0.701038E-02 -0.512407E-02 -0.349512E-02 -0.223763E-02
 -0.129853E-02 -0.628824E-03 -0.217258E-03 -0.340118E-04  0.127459E-04  0.817285E-04
  0.193776E-03  0.317738E-03  0.471650E-03 -0.915014E-03 -0.187851E-02 -0.337003E-02
 -0.508829E-02 -0.663846E-02 -0.783261E-02 -0.873086E-02 -0.942718E-02 -0.985375E-02
 -0.978366E-02 -0.901633E-02 -0.758480E-02 -0.578783E-02 -0.401244E-02 -0.252638E-02
 -0.141661E-02 -0.662480E-03 -0.217348E-03 -0.285437E-04  0.254575E-04  0.120406E-03
  0.229262E-03  0.317738E-03  0.336601E-03  0.479850E-03 -0.109686E-02 -0.246079E-02
 -0.443126E-02 -0.642056E-02 -0.787861E-02 -0.871678E-02 -0.916390E-02 -0.937222E-02
 -0.926676E-02 -0.868638E-02 -0.757997E-02 -0.607385E-02 -0.441479E-02 -0.287042E-02
 -0.163376E-02 -0.774174E-03 -0.264514E-03 -0.416244E-04  0.324309E-04  0.144532E-03
  0.270177E-03  0.328462E-03  0.336601E-03  0.276749E-03 -0.438212E-03 -0.124439E-02
 -0.297756E-02 -0.527151E-02 -0.725527E-02 -0.837087E-02 -0.874094E-02 -0.873158E-02
 -0.849466E-02 -0.796215E-02 -0.706634E-02 -0.585491E-02 -0.445992E-02 -0.305643E-02
 -0.183243E-02 -0.920250E-03 -0.347166E-03 -0.696704E-04  0.252033E-04  0.130432E-03
  0.272985E-03  0.352090E-03  0.330331E-03  0.276749E-03  0.197473E-03 -0.377769E-03
 -0.132401E-02 -0.327318E-02 -0.559505E-02 -0.727562E-02 -0.793569E-02 -0.790857E-02
 -0.758257E-02 -0.705968E-02 -0.629859E-02 -0.531197E-02 -0.418206E-02 -0.301125E-02
 -0.192335E-02 -0.104607E-02 -0.445960E-03 -0.114083E-03  0.122322E-04  0.812696E-04
  0.217956E-03  0.316911E-03  0.333200E-03  0.271769E-03  0.197473E-03  0.923028E-04
 -0.287078E-03 -0.131484E-02 -0.326915E-02 -0.530751E-02 -0.651035E-02 -0.677647E-02
 -0.652798E-02 -0.606381E-02 -0.543391E-02 -0.463923E-02 -0.373588E-02 -0.279652E-02
 -0.189343E-02 -0.111617E-02 -0.538227E-03 -0.176380E-03 -0.150729E-04  0.270440E-04
  0.135305E-03  0.227547E-03  0.254553E-03  0.235067E-03  0.171951E-03  0.923028E-04
  0.455434E-13 -0.253309E-03 -0.132949E-02 -0.307786E-02 -0.461128E-02 -0.531780E-02
 -0.532773E-02 -0.500587E-02 -0.452649E-02 -0.391984E-02 -0.322293E-02 -0.249313E-02
 -0.177650E-02 -0.112660E-02 -0.607075E-03 -0.249957E-03 -0.519198E-04  0.676251E-05
  0.800245E-04  0.170254E-03  0.194475E-03  0.170780E-03  0.137390E-03  0.731511E-04
  0.455434E-13  0.931610E-03  0.350823E-03 -0.381824E-03 -0.109823E-02 -0.195074E-02
 -0.251590E-02 -0.276358E-02 -0.278355E-02 -0.261641E-02 -0.229497E-02 -0.187472E-02
 -0.140354E-02 -0.923955E-03 -0.498381E-03 -0.187234E-03 -0.225020E-04  0.364736E-04
  0.263587E-03  0.646648E-03  0.101844E-02  0.127916E-02  0.147330E-02  0.160193E-02
  0.147107E-02  0.931610E-03  0.382551E-03  0.123475E-04 -0.206866E-03 -0.835962E-03
 -0.145939E-02 -0.184645E-02 -0.200256E-02 -0.197570E-02 -0.180331E-02 -0.153473E-02
 -0.121334E-02 -0.863601E-03 -0.521104E-03 -0.240448E-03 -0.603306E-04 -0.229725E-05
  0.101925E-03  0.366031E-03  0.682798E-03  0.899374E-03  0.100409E-02  0.108239E-02
  0.110615E-02  0.885085E-03  0.382551E-03 -0.486809E-03 -0.270389E-03 -0.443980E-03
 -0.834896E-03 -0.118555E-02 -0.138970E-02 -0.144450E-02 -0.137214E-02 -0.121222E-02
 -0.100666E-02 -0.773557E-03 -0.523424E-03 -0.290956E-03 -0.119871E-03 -0.334767E-04
 -0.531241E-04  0.213066E-03  0.494016E-03  0.775986E-03  0.960008E-03  0.107337E-02
  0.116070E-02  0.114584E-02  0.894387E-03 -0.486809E-03 -0.129544E-02 -0.970864E-03
 -0.896550E-03 -0.971098E-03 -0.106276E-02 -0.110172E-02 -0.106479E-02 -0.962858E-03
 -0.827307E-03 -0.677443E-03 -0.511968E-03 -0.339123E-03 -0.192380E-03 -0.104089E-03
 -0.920165E-04 -0.183717E-03  0.414071E-03  0.763729E-03  0.114850E-02  0.151242E-02
 -0.184479E-02 -0.207999E-02 -0.207514E-02 -0.175867E-02 -0.129544E-02 -0.221328E-02
 -0.163754E-02 -0.128227E-02 -0.109832E-02 -0.997892E-03 -0.914377E-03 -0.816681E-03
 -0.707636E-03 -0.600306E-03 -0.493625E-03 -0.379767E-03 -0.269576E-03 -0.192987E-03
 -0.176263E-03 -0.241008E-03 -0.423776E-03 -0.766964E-03 -0.127437E-02 -0.190209E-02
 -0.258319E-02 -0.319616E-02 -0.353815E-02 -0.343203E-02 -0.290463E-02 -0.221328E-02
 -0.278785E-02 -0.202513E-02 -0.149008E-02 -0.114783E-02 -0.929063E-03 -0.775300E-03
 -0.654067E-03 -0.555687E-03 -0.475833E-03 -0.404483E-03 -0.335566E-03 -0.281725E-03
 -0.270247E-03 -0.329157E-03 -0.489353E-03 -0.796469E-03 -0.130204E-02 -0.202719E-02
 -0.292732E-02 -0.386316E-02 -0.458830E-02 -0.483165E-02 -0.448042E-02 -0.369236E-02
 -0.278785E-02 -0.299843E-02 -0.215147E-02 -0.152806E-02 -0.110554E-02 -0.832923E-03
 -0.658376E-03 -0.543104E-03 -0.465339E-03 -0.412891E-03 -0.376076E-03 -0.352108E-03
 -0.354249E-03 -0.411418E-03 -0.560413E-03 -0.844133E-03 -0.131357E-02 -0.201500E-02
 -0.294999E-02 -0.402171E-02 -0.500579E-02 -0.560157E-02 -0.558644E-02 -0.497282E-02
 -0.400690E-02 -0.299843E-02 -0.296018E-02 -0.208280E-02 -0.143038E-02 -0.990752E-03
 -0.718807E-03 -0.559031E-03 -0.465905E-03 -0.413918E-03 -0.391895E-03 -0.393557E-03
 -0.418432E-03 -0.481807E-03 -0.619793E-03 -0.882707E-03 -0.132372E-02 -0.198648E-02
 -0.288413E-02 -0.396103E-02 -0.505198E-02 -0.589052E-02 -0.621066E-02 -0.590033E-02
 -0.507755E-02 -0.401050E-02 -0.296018E-02 -0.273138E-02 -0.186754E-02 -0.124377E-02
 -0.840355E-03 -0.604435E-03 -0.476630E-03 -0.412924E-03 -0.391894E-03 -0.406526E-03
 -0.453959E-03 -0.536905E-03 -0.676353E-03 -0.919128E-03 -0.132676E-02 -0.195108E-02
 -0.280929E-02 -0.386212E-02 -0.498901E-02 -0.597487E-02 -0.655701E-02 -0.654695E-02
 -0.594504E-02 -0.494034E-02 -0.379659E-02 -0.273138E-02 -0.235225E-02 -0.155976E-02
 -0.101406E-02 -0.677370E-03 -0.491897E-03 -0.403430E-03 -0.375868E-03 -0.393562E-03
 -0.453717E-03 -0.558576E-03 -0.717934E-03 -0.961223E-03 -0.134167E-02 -0.191824E-02
 -0.272408E-02 -0.374038E-02 -0.487850E-02 -0.596442E-02 -0.675148E-02 -0.700477E-02
 -0.662993E-02 -0.573608E-02 -0.456908E-02 -0.338267E-02 -0.235225E-02 -0.188206E-02
 -0.120607E-02 -0.762553E-03 -0.503321E-03 -0.375418E-03 -0.334616E-03 -0.352506E-03
 -0.418264E-03 -0.535156E-03 -0.715311E-03 -0.979493E-03 -0.136189E-02 -0.190815E-02
 -0.265745E-02 -0.361569E-02 -0.473003E-02 -0.586639E-02 -0.680320E-02 -0.728298E-02
 -0.713378E-02 -0.637947E-02 -0.523181E-02 -0.396923E-02 -0.281333E-02 -0.188206E-02
 -0.137280E-02 -0.834559E-03 -0.502746E-03 -0.328561E-03 -0.267172E-03 -0.283540E-03
 -0.356067E-03 -0.480277E-03 -0.669819E-03 -0.950732E-03 -0.135222E-02 -0.190172E-02
 -0.262421E-02 -0.353300E-02 -0.460270E-02 -0.573401E-02 -0.673747E-02 -0.736742E-02
 -0.741703E-02 -0.683216E-02 -0.575673E-02 -0.446083E-02 -0.320726E-02 -0.215941E-02
 -0.137280E-02 -0.871210E-03 -0.483838E-03 -0.271267E-03 -0.187718E-03 -0.197739E-03
 -0.277410E-03 -0.414274E-03 -0.613376E-03 -0.901418E-03 -0.131458E-02 -0.187814E-02
 -0.260221E-02 -0.349136E-02 -0.453058E-02 -0.563787E-02 -0.663765E-02 -0.730509E-02
 -0.745603E-02 -0.702007E-02 -0.607174E-02 -0.481480E-02 -0.350871E-02 -0.236488E-02
 -0.148429E-02 -0.871210E-03 -0.441816E-03 -0.209383E-03 -0.112145E-03 -0.113282E-03
 -0.192961E-03 -0.342580E-03 -0.560876E-03 -0.864011E-03 -0.128748E-02 -0.186214E-02
 -0.259355E-02 -0.347487E-02 -0.449422E-02 -0.558353E-02 -0.656321E-02 -0.719444E-02
 -0.731819E-02 -0.692127E-02 -0.608490E-02 -0.493842E-02 -0.366521E-02 -0.247668E-02
 -0.152743E-02 -0.861360E-03 -0.441816E-03 -0.144056E-03 -0.490197E-04 -0.484114E-04
 -0.122628E-03 -0.272696E-03 -0.506358E-03 -0.833992E-03 -0.128041E-02 -0.187553E-02
 -0.262360E-02 -0.350336E-02 -0.449586E-02 -0.555487E-02 -0.651888E-02 -0.711903E-02
 -0.716155E-02 -0.667800E-02 -0.583880E-02 -0.478507E-02 -0.361469E-02 -0.246354E-02
 -0.149548E-02 -0.803993E-03 -0.375286E-03 -0.144056E-03 -0.785245E-05 -0.238803E-04
 -0.101455E-03 -0.241833E-03 -0.469467E-03 -0.808466E-03 -0.127833E-02 -0.190094E-02
 -0.267963E-02 -0.358017E-02 -0.455840E-02 -0.557288E-02 -0.650771E-02 -0.711044E-02
 -0.712651E-02 -0.653945E-02 -0.558340E-02 -0.450155E-02 -0.339874E-02 -0.232806E-02
 -0.139514E-02 -0.709666E-03 -0.291350E-03 -0.806459E-04 -0.785245E-05  0.639420E-04
  0.168470E-03  0.302378E-03  0.499204E-03 -0.816536E-03 -0.129095E-02 -0.193260E-02
 -0.273493E-02 -0.366172E-02 -0.464951E-02 -0.563492E-02 -0.652956E-02 -0.714283E-02
 -0.721516E-02 -0.663304E-02 -0.557683E-02 -0.436622E-02 -0.320822E-02 -0.216205E-02
 -0.126946E-02 -0.605866E-03 -0.207584E-03 -0.314587E-04  0.371370E-05  0.639420E-04
  0.341142E-03  0.480558E-03  0.618586E-03  0.859481E-03 -0.130220E-02 -0.196301E-02
 -0.279266E-02 -0.372875E-02 -0.471041E-02 -0.567144E-02 -0.652705E-02 -0.713587E-02
 -0.729030E-02 -0.683085E-02 -0.581529E-02 -0.451798E-02 -0.322967E-02 -0.210440E-02
 -0.119323E-02 -0.532554E-03 -0.146053E-03 -0.538127E-05  0.410561E-04  0.177379E-03
  0.341142E-03  0.765561E-03  0.827297E-03  0.908038E-03  0.121888E-02 -0.186842E-02
 -0.277425E-02 -0.376594E-02 -0.473013E-02 -0.562805E-02 -0.641688E-02 -0.699224E-02
 -0.719569E-02 -0.688440E-02 -0.603601E-02 -0.480478E-02 -0.345349E-02 -0.221620E-02
 -0.122329E-02 -0.523178E-03 -0.123564E-03 -0.704521E-06  0.984166E-04  0.332611E-03
  0.592210E-03  0.765561E-03  0.114847E-02  0.103704E-02  0.105876E-02  0.151516E-02
 -0.245065E-02 -0.359818E-02 -0.464897E-02 -0.549589E-02 -0.617187E-02 -0.666455E-02
 -0.686505E-02 -0.665360E-02 -0.599014E-02 -0.494383E-02 -0.368021E-02 -0.241747E-02
 -0.135012E-02 -0.585544E-03 -0.145585E-03  0.102257E-04  0.141089E-03  0.464179E-03
  0.845002E-03  0.111025E-02  0.114847E-02  0.138597E-02  0.110218E-02  0.110793E-02
 -0.175437E-02 -0.295356E-02 -0.422116E-02 -0.517279E-02 -0.578357E-02 -0.616609E-02
 -0.632273E-02 -0.616326E-02 -0.563981E-02 -0.479263E-02 -0.371838E-02 -0.256104E-02
 -0.150292E-02 -0.696867E-03 -0.206002E-03 -0.280969E-04  0.145380E-03  0.511072E-03
  0.998531E-03  0.140690E-02  0.155121E-02  0.138597E-02  0.154132E-02  0.112878E-02
  0.112373E-02 -0.190278E-02 -0.321268E-02 -0.440780E-02 -0.513946E-02 -0.549185E-02
 -0.560983E-02 -0.549049E-02 -0.508253E-02 -0.440562E-02 -0.353415E-02 -0.255871E-02
 -0.160393E-02 -0.815588E-03 -0.289767E-03 -0.527638E-04  0.110023E-03  0.450324E-03
  0.980326E-03  0.151176E-02  0.184684E-02  0.185813E-02  0.154132E-02  0.163330E-02
  0.110580E-02  0.105365E-02 -0.184719E-02 -0.307770E-02 -0.406176E-02 -0.456480E-02
 -0.473112E-02 -0.467758E-02 -0.439583E-02 -0.388341E-02 -0.319950E-02 -0.241765E-02
 -0.161656E-02 -0.903077E-03 -0.377154E-03 -0.871798E-04  0.568768E-04  0.308007E-03
  0.793782E-03  0.135537E-02  0.181797E-02  0.207375E-02  0.203193E-02  0.163330E-02
  0.147594E-02  0.855324E-03  0.778774E-03 -0.152655E-02 -0.257657E-02 -0.333199E-02
 -0.367814E-02 -0.374892E-02 -0.361280E-02 -0.327542E-02 -0.277585E-02 -0.217961E-02
 -0.154440E-02 -0.939697E-03 -0.450122E-03 -0.133592E-03  0.202840E-04  0.148046E-03
  0.519185E-03  0.101484E-02  0.146572E-02  0.180321E-02  0.200850E-02  0.194908E-02
  0.147594E-02  0.931610E-03  0.350823E-03 -0.381824E-03 -0.109823E-02 -0.195074E-02
 -0.251590E-02 -0.276358E-02 -0.278355E-02 -0.261641E-02 -0.229497E-02 -0.187472E-02
 -0.140354E-02 -0.923955E-03 -0.498381E-03 -0.187234E-03 -0.225020E-04  0.364736E-04
  0.263587E-03  0.646648E-03  0.101844E-02  0.127916E-02  0.147330E-02  0.160193E-02
  0.147107E-02  0.931610E-03  0.458339E-02  0.261582E-02  0.119276E-02  0.688396E-03
 -0.767317E-03 -0.102270E-02 -0.125139E-02 -0.136901E-02 -0.134466E-02 -0.119649E-02
 -0.961366E-03 -0.671119E-03 -0.372880E-03 -0.136381E-03  0.260301E-04  0.108195E-03
  0.486223E-03  0.124065E-02  0.229135E-02  0.343591E-02  0.456007E-02  0.561303E-02
  0.630149E-02  0.604122E-02  0.458339E-02  0.264709E-02  0.117749E-02  0.345597E-03
  0.201958E-03 -0.405423E-03 -0.670845E-03 -0.864526E-03 -0.938142E-03 -0.896888E-03
 -0.772811E-03 -0.590670E-03 -0.373514E-03 -0.168271E-03 -0.330469E-04  0.163430E-04
  0.183894E-03  0.625902E-03  0.135287E-02  0.221085E-02  0.302684E-02  0.377406E-02
  0.442053E-02  0.466062E-02  0.405431E-02  0.264709E-02  0.128316E-02  0.396407E-03
  0.222234E-04 -0.610506E-04 -0.269688E-03 -0.477875E-03 -0.605501E-03 -0.635251E-03
 -0.589261E-03 -0.492106E-03 -0.354868E-03 -0.198516E-03 -0.667410E-04 -0.232707E-05
  0.429269E-04  0.250614E-03  0.687323E-03  0.130833E-02  0.194822E-02  0.248747E-02
  0.292550E-02  0.320594E-02  0.308432E-02  0.236383E-02  0.128316E-02  0.842206E-03
  0.300445E-03 -0.103025E-03 -0.143144E-03 -0.272852E-03 -0.390171E-03 -0.447875E-03
 -0.445194E-03 -0.401308E-03 -0.326280E-03 -0.224294E-03 -0.116550E-03 -0.388083E-04
 -0.208521E-04  0.955161E-04  0.318160E-03  0.726197E-03  0.125995E-02  0.178690E-02
  0.222035E-02  0.252520E-02  0.260439E-02  0.230322E-02  0.162191E-02  0.842206E-03
 -0.954786E-03 -0.525292E-03 -0.331223E-03 -0.294410E-03 -0.323577E-03 -0.354327E-03
 -0.358539E-03 -0.337266E-03 -0.298083E-03 -0.241045E-03 -0.169134E-03 -0.101704E-03
 -0.659661E-04 -0.856785E-04 -0.192602E-03  0.434154E-03  0.836711E-03  0.135657E-02
  0.189805E-02  0.236495E-02  0.265207E-02  0.263054E-02  0.223653E-02  0.159132E-02
 -0.954786E-03 -0.120281E-02 -0.783300E-03 -0.538282E-03 -0.416820E-03 -0.362433E-03
 -0.332934E-03 -0.306750E-03 -0.278616E-03 -0.246992E-03 -0.208649E-03 -0.166510E-03
 -0.136375E-03 -0.141018E-03 -0.204644E-03 -0.359058E-03 -0.644515E-03 -0.108454E-02
 -0.165132E-02 -0.225683E-02 -0.276516E-02 -0.301665E-02 -0.289603E-02 -0.242795E-02
 -0.179147E-02 -0.120281E-02 -0.139726E-02 -0.952877E-03 -0.653001E-03 -0.469958E-03
 -0.366760E-03 -0.308706E-03 -0.272270E-03 -0.246941E-03 -0.228300E-03 -0.213048E-03
 -0.203110E-03 -0.211928E-03 -0.263393E-03 -0.386806E-03 -0.615261E-03 -0.981386E-03
 -0.149830E-02 -0.212835E-02 -0.276205E-02 -0.323288E-02 -0.338127E-02 -0.314701E-02
 -0.261846E-02 -0.197954E-02 -0.139726E-02 -0.147161E-02 -0.997162E-03 -0.665436E-03
 -0.458460E-03 -0.341914E-03 -0.279728E-03 -0.247062E-03 -0.233338E-03 -0.234857E-03
 -0.248557E-03 -0.275586E-03 -0.330390E-03 -0.442947E-03 -0.650474E-03 -0.986078E-03
 -0.146703E-02 -0.207799E-02 -0.274860E-02 -0.334410E-02 -0.369920E-02 -0.369633E-02
 -0.333670E-02 -0.274073E-02 -0.207499E-02 -0.147161E-02 -0.140455E-02 -0.927187E-03
 -0.601975E-03 -0.405175E-03 -0.298550E-03 -0.246762E-03 -0.228208E-03 -0.234857E-03
 -0.264339E-03 -0.314555E-03 -0.388552E-03 -0.505756E-03 -0.703793E-03 -0.102382E-02
 -0.148956E-02 -0.209162E-02 -0.277748E-02 -0.344255E-02 -0.393804E-02 -0.412096E-02
 -0.392922E-02 -0.341983E-02 -0.273427E-02 -0.202546E-02 -0.140455E-02 -0.121791E-02
 -0.777862E-03 -0.489987E-03 -0.322740E-03 -0.238708E-03 -0.207863E-03 -0.213037E-03
 -0.248424E-03 -0.313997E-03 -0.412022E-03 -0.551981E-03 -0.759234E-03 -0.107186E-02
 -0.152106E-02 -0.210935E-02 -0.279942E-02 -0.350843E-02 -0.410536E-02 -0.443651E-02
 -0.439373E-02 -0.398032E-02 -0.331033E-02 -0.254350E-02 -0.181755E-02 -0.121791E-02
 -0.951209E-03 -0.576509E-03 -0.342931E-03 -0.217180E-03 -0.166574E-03 -0.166588E-03
 -0.203519E-03 -0.274549E-03 -0.385523E-03 -0.548406E-03 -0.781437E-03 -0.110908E-02
 -0.155458E-02 -0.212562E-02 -0.280146E-02 -0.352270E-02 -0.418080E-02 -0.462519E-02
 -0.471608E-02 -0.440496E-02 -0.377144E-02 -0.297648E-02 -0.217952E-02 -0.148780E-02
 -0.951209E-03 -0.639384E-03 -0.348778E-03 -0.183676E-03 -0.110924E-03 -0.102229E-03
 -0.138914E-03 -0.212511E-03 -0.326266E-03 -0.496264E-03 -0.746514E-03 -0.109851E-02
 -0.156289E-02 -0.213764E-02 -0.280583E-02 -0.352374E-02 -0.420324E-02 -0.470980E-02
 -0.489910E-02 -0.468796E-02 -0.411129E-02 -0.331088E-02 -0.246143E-02 -0.169671E-02
 -0.108412E-02 -0.639384E-03 -0.332140E-03 -0.143201E-03 -0.568140E-04 -0.402566E-04
 -0.729463E-04 -0.146839E-03 -0.262156E-03 -0.431134E-03 -0.681156E-03 -0.104174E-02
 -0.152400E-02 -0.211671E-02 -0.279703E-02 -0.352490E-02 -0.421818E-02 -0.474812E-02
 -0.497999E-02 -0.483256E-02 -0.431662E-02 -0.353690E-02 -0.265561E-02 -0.182893E-02
 -0.115373E-02 -0.659082E-03 -0.332140E-03 -0.997017E-04 -0.178494E-04 -0.508580E-05
 -0.347484E-04 -0.101417E-03 -0.212280E-03 -0.378627E-03 -0.623054E-03 -0.978326E-03
 -0.146296E-02 -0.206445E-02 -0.275403E-02 -0.349478E-02 -0.420985E-02 -0.476139E-02
 -0.500324E-02 -0.486530E-02 -0.437601E-02 -0.362669E-02 -0.274542E-02 -0.188046E-02
 -0.115652E-02 -0.629464E-03 -0.289733E-03 -0.997017E-04  0.523033E-05  0.207149E-04
  0.660504E-04  0.126382E-03 -0.216946E-03 -0.363279E-03 -0.590886E-03 -0.931424E-03
 -0.140886E-02 -0.201187E-02 -0.270067E-02 -0.343491E-02 -0.415453E-02 -0.473033E-02
 -0.499163E-02 -0.484451E-02 -0.433592E-02 -0.358794E-02 -0.272022E-02 -0.185047E-02
 -0.110222E-02 -0.558766E-03 -0.225748E-03 -0.583191E-04  0.523033E-05  0.114272E-03
  0.217688E-03  0.301181E-03  0.367764E-03  0.462197E-03 -0.634666E-03 -0.926813E-03
 -0.137048E-02 -0.196302E-02 -0.265403E-02 -0.337893E-02 -0.407896E-02 -0.465664E-02
 -0.495033E-02 -0.482577E-02 -0.429838E-02 -0.351546E-02 -0.263375E-02 -0.176643E-02
 -0.101508E-02 -0.468334E-03 -0.152866E-03 -0.279155E-04  0.329893E-04  0.114272E-03
  0.529103E-03  0.696506E-03  0.766969E-03  0.788251E-03  0.854809E-03 -0.104267E-02
 -0.139527E-02 -0.192486E-02 -0.259281E-02 -0.331462E-02 -0.400049E-02 -0.456190E-02
 -0.487657E-02 -0.480929E-02 -0.431891E-02 -0.351831E-02 -0.259443E-02 -0.170020E-02
 -0.938830E-03 -0.389090E-03 -0.891887E-04  0.154380E-04  0.108506E-03  0.304754E-03
  0.529103E-03  0.132262E-02  0.145601E-02  0.140438E-02  0.131401E-02  0.133981E-02
 -0.155316E-02 -0.195863E-02 -0.253050E-02 -0.320424E-02 -0.387455E-02 -0.442575E-02
 -0.474844E-02 -0.473952E-02 -0.433871E-02 -0.359243E-02 -0.265698E-02 -0.171892E-02
 -0.921313E-03 -0.351637E-03 -0.518982E-04  0.191475E-04  0.213733E-03  0.570957E-03
  0.988737E-03  0.132262E-02  0.239719E-02  0.232348E-02  0.203170E-02  0.180103E-02
  0.181640E-02 -0.208063E-02 -0.251708E-02 -0.306660E-02 -0.366261E-02 -0.419132E-02
 -0.452213E-02 -0.455826E-02 -0.425429E-02 -0.362319E-02 -0.275589E-02 -0.181585E-02
 -0.979936E-03 -0.372602E-03 -0.511296E-04  0.313005E-04  0.306855E-03  0.836110E-03
  0.150247E-02  0.209732E-02  0.239719E-02  0.353599E-02  0.311749E-02  0.252731E-02
  0.216661E-02  0.219939E-02 -0.250641E-02 -0.292388E-02 -0.338517E-02 -0.383647E-02
 -0.416200E-02 -0.424062E-02 -0.402046E-02 -0.351539E-02 -0.277818E-02 -0.191430E-02
 -0.108506E-02 -0.446185E-03 -0.870156E-04  0.447698E-04  0.347858E-03  0.100108E-02
  0.191054E-02  0.283573E-02  0.345433E-02  0.353599E-02  0.463126E-02  0.382334E-02
  0.290629E-02  0.239661E-02  0.240956E-02 -0.269735E-02 -0.304054E-02 -0.338071E-02
 -0.366697E-02 -0.378631E-02 -0.365224E-02 -0.326501E-02 -0.267235E-02 -0.194078E-02
 -0.118262E-02 -0.546772E-03 -0.150313E-03  0.559538E-04  0.320047E-03  0.999493E-03
  0.206015E-02  0.328970E-02  0.433571E-02  0.484603E-02  0.463126E-02  0.565110E-02
  0.442733E-02  0.313358E-02  0.241995E-02  0.234429E-02 -0.255839E-02 -0.281701E-02
 -0.305464E-02 -0.320426E-02 -0.316734E-02 -0.290533E-02 -0.245472E-02 -0.187219E-02
 -0.122991E-02 -0.640901E-03 -0.225501E-03  0.662542E-04  0.236465E-03  0.831538E-03
  0.188953E-02  0.327137E-02  0.467366E-02  0.574318E-02  0.614357E-02  0.565110E-02
  0.631301E-02  0.463593E-02  0.298057E-02  0.209761E-02  0.195044E-02 -0.211689E-02
 -0.233591E-02 -0.251597E-02 -0.257627E-02 -0.245172E-02 -0.214855E-02 -0.171622E-02
 -0.120839E-02 -0.700790E-03 -0.295581E-03 -0.815211E-04  0.135157E-03  0.564272E-03
  0.146487E-02  0.278342E-02  0.429213E-02  0.572201E-02  0.679207E-02  0.710661E-02
  0.631301E-02  0.603760E-02  0.401585E-02  0.225496E-02  0.142917E-02  0.134289E-02
 -0.153925E-02 -0.176454E-02 -0.191474E-02 -0.192222E-02 -0.176752E-02 -0.148391E-02
 -0.111557E-02 -0.711449E-03 -0.347010E-03 -0.105768E-03  0.583286E-04  0.297605E-03
  0.943421E-03  0.202129E-02  0.337145E-02  0.478187E-02  0.610706E-02  0.709285E-02
  0.720759E-02  0.603760E-02  0.458339E-02  0.261582E-02  0.119276E-02  0.688396E-03
 -0.767317E-03 -0.102270E-02 -0.125139E-02 -0.136901E-02 -0.134466E-02 -0.119649E-02
 -0.961366E-03 -0.671119E-03 -0.372880E-03 -0.136381E-03  0.260301E-04  0.108195E-03
  0.486223E-03  0.124065E-02  0.229135E-02  0.343591E-02  0.456007E-02  0.561303E-02
  0.630149E-02  0.604122E-02  0.458339E-02  0.103342E-01  0.640075E-02  0.326698E-02
  0.147346E-02  0.717661E-03  0.522731E-03 -0.550901E-03 -0.609623E-03 -0.613799E-03
 -0.547548E-03 -0.419557E-03 -0.253423E-03 -0.104495E-03  0.520536E-04  0.187386E-03
  0.646853E-03  0.162394E-02  0.325618E-02  0.548748E-02  0.812120E-02  0.109149E-01
  0.133852E-01  0.145793E-01  0.135315E-01  0.103342E-01  0.642915E-02  0.354262E-02
  0.156690E-02  0.592166E-03  0.271969E-03 -0.260045E-03 -0.336430E-03 -0.390538E-03
 -0.389073E-03 -0.333381E-03 -0.232314E-03 -0.113182E-03 -0.319388E-04  0.565615E-04
  0.271156E-03  0.810027E-03  0.182574E-02  0.335407E-02  0.525252E-02  0.732082E-02
  0.933071E-02  0.108016E-01  0.109557E-01  0.931863E-02  0.642915E-02  0.333872E-02
  0.160374E-02  0.572022E-03  0.144545E-03  0.671685E-04 -0.130531E-03 -0.208616E-03
 -0.248766E-03 -0.243772E-03 -0.197754E-03 -0.119678E-03 -0.395695E-04  0.648830E-05
  0.740679E-04  0.317375E-03  0.851765E-03  0.177030E-02  0.302989E-02  0.445606E-02
  0.586005E-02  0.702318E-02  0.755868E-02  0.702756E-02  0.541159E-02  0.333872E-02
  0.158198E-02  0.656541E-03  0.170064E-03  0.898706E-05 -0.209746E-04 -0.886624E-04
 -0.145240E-03 -0.169149E-03 -0.160481E-03 -0.121634E-03 -0.625784E-04 -0.114171E-04
  0.575797E-05  0.869679E-04  0.318899E-03  0.787919E-03  0.153603E-02  0.248704E-02
  0.347760E-02  0.433638E-02  0.487009E-02  0.483634E-02  0.409910E-02  0.285775E-02
  0.158198E-02  0.837779E-03  0.344215E-03  0.102337E-03 -0.327648E-04 -0.504346E-04
 -0.914090E-04 -0.121295E-03 -0.130490E-03 -0.118657E-03 -0.870117E-04 -0.450763E-04
 -0.149295E-04  0.241718E-04  0.105950E-03  0.310273E-03  0.693764E-03  0.126942E-02
  0.196562E-02  0.264799E-02  0.316258E-02  0.335121E-02  0.309676E-02  0.243280E-02
  0.158596E-02  0.837779E-03  0.629959E-03 -0.323791E-03 -0.163318E-03 -0.102495E-03
 -0.953629E-04 -0.106140E-03 -0.114505E-03 -0.113721E-03 -0.102457E-03 -0.812196E-04
 -0.567159E-04 -0.448661E-04 -0.678191E-04 -0.153229E-03  0.336858E-03  0.652549E-03
  0.110231E-02  0.162986E-02  0.212408E-02  0.244758E-02  0.248205E-02  0.219252E-02
  0.167193E-02  0.109940E-02  0.629959E-03 -0.632576E-03 -0.383575E-03 -0.232661E-03
 -0.155652E-03 -0.124768E-03 -0.115190E-03 -0.111477E-03 -0.108153E-03 -0.103803E-03
 -0.975627E-04 -0.926863E-04 -0.101644E-03 -0.145452E-03 -0.249207E-03 -0.438523E-03
 -0.731851E-03 -0.112229E-02 -0.155726E-02  0.193729E-02  0.214709E-02  0.211008E-02
 -0.183567E-02 -0.141962E-02 -0.988382E-03 -0.632576E-03 -0.662643E-03 -0.418852E-03
 -0.261788E-03 -0.173967E-03 -0.131719E-03 -0.113848E-03 -0.108137E-03 -0.110766E-03
 -0.120231E-03 -0.134148E-03 -0.153765E-03 -0.191564E-03 -0.271106E-03 -0.418144E-03
 -0.651109E-03 -0.972516E-03 -0.135783E-02 -0.174533E-02 -0.204277E-02 -0.216137E-02
 -0.206122E-02 -0.177446E-02 -0.138723E-02 -0.994575E-03 -0.662643E-03 -0.639436E-03