 CRYSTAL
 PRIMVEC
   -2.700867567    0.000000000    2.700867567
    0.000000000    2.700867567    2.700867567
   -2.700867567    2.700867567    0.000000000
 PRIMCOORD
           2           1
Si        0.000000000    0.000000000    0.000000000
Si        1.350433783    1.350433783    1.350433783
BEGIN_BLOCK_DATAGRID_3D
3D_PWSCF
BEGIN_DATAGRID_3D_UNKNOWN
          25          25          25
  0.000000  0.000000  0.000000
   -2.700868    0.000000    2.700868
    0.000000    2.700868    2.700868
   -2.700868    2.700868    0.000000
  0.300735E-03  0.720122E-03  0.209703E-02  0.406908E-02  0.545099E-02  0.546697E-02
  0.447161E-02  0.323321E-02  0.219069E-02  0.142785E-02  0.912271E-03  0.614631E-03
  0.517772E-03  0.614631E-03  0.912273E-03  0.142785E-02  0.219070E-02  0.323321E-02
  0.447162E-02  0.546698E-02  0.545100E-02  0.406909E-02  0.209704E-02  0.720123E-03
  0.300735E-03  0.398384E-03  0.126553E-02  0.295745E-02  0.459932E-02  0.520953E-02
  0.466533E-02  0.359340E-02  0.256816E-02  0.179513E-02  0.127857E-02  0.992190E-03
  0.917982E-03  0.104498E-02  0.137931E-02  0.194608E-02  0.278172E-02  0.393537E-02
  0.542487E-02  0.703018E-02  0.802971E-02  0.746025E-02  0.518321E-02  0.245089E-02
  0.720122E-03  0.398384E-03  0.102132E-02  0.248274E-02  0.407171E-02  0.493000E-02
  0.475922E-02  0.394195E-02  0.301832E-02  0.226737E-02  0.174611E-02  0.145011E-02
  0.136835E-02  0.148429E-02  0.179466E-02  0.232750E-02  0.312929E-02  0.424610E-02
  0.571678E-02  0.748750E-02  0.914616E-02  0.973468E-02  0.831194E-02  0.518321E-02
  0.209704E-02  0.645447E-03  0.102132E-02  0.221320E-02  0.373517E-02  0.469257E-02
  0.477809E-02  0.423550E-02  0.349002E-02  0.281274E-02  0.229621E-02  0.197206E-02
  0.185345E-02  0.192636E-02  0.217174E-02  0.260620E-02  0.328245E-02  0.424841E-02
  0.552275E-02  0.708612E-02  0.876608E-02  0.997927E-02  0.973468E-02  0.746024E-02
  0.406908E-02  0.154040E-02  0.107339E-02  0.221320E-02  0.322489E-02  0.430188E-02
  0.466045E-02  0.443007E-02  0.393264E-02  0.339303E-02  0.291109E-02  0.255267E-02
  0.236997E-02  0.236984E-02  0.252497E-02  0.282962E-02  0.332695E-02  0.407039E-02
  0.506944E-02  0.628121E-02  0.760583E-02  0.876607E-02  0.914616E-02  0.802970E-02
  0.545099E-02  0.271072E-02  0.140170E-02  0.188989E-02  0.322489E-02  0.365728E-02
  0.434745E-02  0.450216E-02  0.431752E-02  0.397152E-02  0.356390E-02  0.318435E-02
  0.292290E-02  0.282085E-02  0.286205E-02  0.302507E-02  0.333032E-02  0.382445E-02
  0.452246E-02  0.537451E-02  0.628121E-02  0.708612E-02  0.748749E-02  0.703017E-02
  0.546697E-02  0.331312E-02  0.174404E-02  0.157410E-02  0.251739E-02  0.365728E-02
  0.392017E-02  0.449780E-02  0.466599E-02  0.454095E-02  0.423254E-02  0.385444E-02
  0.352135E-02  0.330329E-02  0.320806E-02  0.321873E-02  0.333899E-02  0.359588E-02
  0.400241E-02  0.452246E-02  0.506944E-02  0.552274E-02  0.571678E-02  0.542487E-02
  0.447161E-02  0.301833E-02  0.170371E-02  0.124920E-02  0.182086E-02  0.292322E-02
  0.392017E-02  0.452731E-02  0.504813E-02  0.514399E-02  0.493323E-02  0.456527E-02
  0.417598E-02  0.384845E-02  0.360797E-02  0.345487E-02  0.339571E-02  0.344317E-02
  0.359589E-02  0.382446E-02  0.407039E-02  0.424841E-02  0.424610E-02  0.393536E-02
  0.323321E-02  0.222803E-02  0.127304E-02  0.860060E-03  0.126989E-02  0.233006E-02
  0.355988E-02  0.452731E-02  0.553781E-02  0.584861E-02  0.572796E-02  0.535907E-02
  0.491000E-02  0.447813E-02  0.409606E-02  0.377586E-02  0.353734E-02  0.339572E-02
  0.333900E-02  0.333033E-02  0.332695E-02  0.328246E-02  0.312929E-02  0.278172E-02
  0.219069E-02  0.143030E-02  0.745790E-03  0.486535E-03  0.913288E-03  0.199947E-02
  0.340961E-02  0.469561E-02  0.553781E-02  0.669910E-02  0.667803E-02  0.629949E-02
  0.576465E-02  0.520562E-02  0.467486E-02  0.419024E-02  0.377586E-02  0.345488E-02
  0.321874E-02  0.302509E-02  0.282964E-02  0.260621E-02  0.232750E-02  0.194608E-02
  0.142785E-02  0.827357E-03  0.334763E-03  0.231458E-03  0.753649E-03  0.192970E-02
  0.350641E-02  0.505138E-02  0.617466E-02  0.669910E-02  0.779147E-02  0.740911E-02
  0.676607E-02  0.603872E-02  0.532845E-02  0.467486E-02  0.409605E-02  0.360797E-02
  0.320807E-02  0.286207E-02  0.252498E-02  0.217175E-02  0.179466E-02  0.137931E-02
  0.912270E-03  0.434433E-03  0.913692E-04  0.119285E-03  0.745794E-03  0.203857E-02
  0.379385E-02  0.558315E-02  0.696574E-02  0.769956E-02  0.779147E-02  0.862637E-02
  0.787150E-02  0.695608E-02  0.603872E-02  0.520562E-02  0.447812E-02  0.384844E-02
  0.330330E-02  0.282085E-02  0.236984E-02  0.192637E-02  0.148429E-02  0.104498E-02
  0.614630E-03  0.232716E-03  0.112347E-04  0.142369E-03  0.843218E-03  0.222803E-02
  0.415777E-02  0.620999E-02  0.787164E-02  0.881693E-02  0.901449E-02  0.862637E-02
  0.895120E-02  0.787150E-02  0.676608E-02  0.576465E-02  0.491000E-02  0.417598E-02
  0.352135E-02  0.292290E-02  0.236997E-02  0.185345E-02  0.136835E-02  0.917982E-03
  0.517772E-03  0.210440E-03  0.879403E-04  0.301054E-03  0.103792E-02  0.244389E-02
  0.447162E-02  0.676033E-02  0.873423E-02  0.992746E-02  0.102278E-01  0.981460E-02
  0.895120E-02  0.862637E-02  0.740912E-02  0.629950E-02  0.535907E-02  0.456527E-02
  0.385444E-02  0.318435E-02  0.255267E-02  0.197207E-02  0.145011E-02  0.992191E-03
  0.614631E-03  0.360480E-03  0.311814E-03  0.589490E-03  0.133880E-02  0.269048E-02
  0.466534E-02  0.703018E-02  0.925118E-02  0.107311E-01  0.111885E-01  0.107689E-01
  0.981460E-02  0.862637E-02  0.779147E-02  0.667803E-02  0.572796E-02  0.493323E-02
  0.423254E-02  0.356390E-02  0.291110E-02  0.229621E-02  0.174611E-02  0.127857E-02
  0.912272E-03  0.686229E-03  0.675136E-03  0.984783E-03  0.172602E-02  0.298032E-02
  0.475923E-02  0.693598E-02  0.914616E-02  0.108198E-01  0.115043E-01  0.111885E-01
  0.102278E-01  0.901448E-02  0.779147E-02  0.669910E-02  0.584862E-02  0.514399E-02
  0.454096E-02  0.397152E-02  0.339303E-02  0.281275E-02  0.226737E-02  0.179513E-02
  0.142785E-02  0.120253E-02  0.118271E-02  0.146425E-02  0.214391E-02  0.326448E-02
  0.477810E-02  0.656093E-02  0.841258E-02  0.997927E-02  0.108198E-01  0.107311E-01
  0.992745E-02  0.881693E-02  0.769956E-02  0.669910E-02  0.553781E-02  0.504814E-02
  0.466599E-02  0.431753E-02  0.393265E-02  0.349002E-02  0.301833E-02  0.256816E-02
  0.219069E-02  0.193276E-02  0.185019E-02  0.202490E-02  0.254739E-02  0.345318E-02
  0.466046E-02  0.599230E-02  0.728742E-02  0.841258E-02  0.914616E-02  0.925118E-02
  0.873423E-02  0.787164E-02  0.696573E-02  0.617466E-02  0.553781E-02  0.452731E-02
  0.449781E-02  0.450216E-02  0.443007E-02  0.423551E-02  0.394196E-02  0.359340E-02
  0.323321E-02  0.291505E-02  0.270672E-02  0.268939E-02  0.294753E-02  0.352283E-02
  0.434745E-02  0.523399E-02  0.599230E-02  0.656092E-02  0.693597E-02  0.703017E-02
  0.676033E-02  0.620998E-02  0.558314E-02  0.505138E-02  0.469561E-02  0.452731E-02
  0.392018E-02  0.434745E-02  0.466045E-02  0.477810E-02  0.475923E-02  0.466534E-02
  0.447162E-02  0.415777E-02  0.379385E-02  0.350641E-02  0.340962E-02  0.355988E-02
  0.392018E-02  0.434745E-02  0.466045E-02  0.477810E-02  0.475922E-02  0.466533E-02
  0.447161E-02  0.415777E-02  0.379385E-02  0.350641E-02  0.340961E-02  0.355988E-02
  0.392018E-02  0.365728E-02  0.430188E-02  0.469258E-02  0.493001E-02  0.520954E-02
  0.546697E-02  0.544992E-02  0.507688E-02  0.452139E-02  0.401650E-02  0.369451E-02
  0.355988E-02  0.352283E-02  0.345318E-02  0.326447E-02  0.298032E-02  0.269047E-02
  0.244388E-02  0.222802E-02  0.203856E-02  0.192970E-02  0.199947E-02  0.233006E-02
  0.292322E-02  0.365728E-02  0.322490E-02  0.373518E-02  0.407172E-02  0.459934E-02
  0.545100E-02  0.616642E-02  0.623401E-02  0.565467E-02  0.480399E-02  0.401650E-02
  0.340962E-02  0.294753E-02  0.254739E-02  0.214391E-02  0.172602E-02  0.133879E-02
  0.103792E-02  0.843214E-03  0.745790E-03  0.753646E-03  0.913286E-03  0.126989E-02
  0.182086E-02  0.251739E-02  0.322490E-02  0.221320E-02  0.248275E-02  0.295746E-02
  0.406909E-02  0.558162E-02  0.659316E-02  0.653695E-02  0.565467E-02  0.452139E-02
  0.350641E-02  0.268939E-02  0.202490E-02  0.146425E-02  0.984783E-03  0.589489E-03
  0.301053E-03  0.142368E-03  0.119283E-03  0.231457E-03  0.486535E-03  0.860062E-03
  0.124920E-02  0.157410E-02  0.188989E-02  0.221320E-02  0.102132E-02  0.126554E-02
  0.209704E-02  0.376765E-02  0.563889E-02  0.659316E-02  0.623400E-02  0.507688E-02
  0.379385E-02  0.270672E-02  0.185019E-02  0.118271E-02  0.675137E-03  0.311815E-03
  0.879406E-04  0.112350E-04  0.913699E-04  0.334764E-03  0.745793E-03  0.127304E-02
  0.170371E-02  0.174405E-02  0.140170E-02  0.107339E-02  0.102132E-02  0.398385E-03
  0.720123E-03  0.183102E-02  0.376765E-02  0.558162E-02  0.616641E-02  0.544991E-02
  0.415777E-02  0.291505E-02  0.193276E-02  0.120253E-02  0.686230E-03  0.360480E-03
  0.210441E-03  0.232717E-03  0.434435E-03  0.827360E-03  0.143030E-02  0.222803E-02
  0.301834E-02  0.331313E-02  0.271073E-02  0.154041E-02  0.645449E-03  0.398385E-03
  0.300735E-03  0.720122E-03  0.209703E-02  0.406908E-02  0.545099E-02  0.546697E-02
  0.447161E-02  0.323321E-02  0.219069E-02  0.142785E-02  0.912271E-03  0.614631E-03
  0.517772E-03  0.614631E-03  0.912273E-03  0.142785E-02  0.219070E-02  0.323321E-02
  0.447162E-02  0.546698E-02  0.545100E-02  0.406909E-02  0.209704E-02  0.720123E-03
  0.300735E-03  0.720123E-03  0.245089E-02  0.518321E-02  0.746024E-02  0.802969E-02
  0.703017E-02  0.542487E-02  0.393536E-02  0.278172E-02  0.194608E-02  0.137931E-02
  0.104498E-02  0.917982E-03  0.992191E-03  0.127857E-02  0.179514E-02  0.256816E-02
  0.359340E-02  0.466534E-02  0.520954E-02  0.459934E-02  0.295746E-02  0.126554E-02
  0.398385E-03  0.720123E-03  0.126553E-02  0.349532E-02  0.593704E-02  0.722528E-02
  0.693597E-02  0.570686E-02  0.433257E-02  0.319417E-02  0.235450E-02  0.178886E-02
  0.146880E-02  0.136660E-02  0.146880E-02  0.178886E-02  0.235450E-02  0.319417E-02
  0.433257E-02  0.570687E-02  0.693598E-02  0.722530E-02  0.593705E-02  0.349533E-02
  0.126553E-02  0.401215E-03  0.126553E-02  0.248275E-02  0.475496E-02  0.631820E-02
  0.656092E-02  0.579028E-02  0.467252E-02  0.364260E-02  0.283575E-02  0.227098E-02
  0.194570E-02  0.183901E-02  0.192643E-02  0.221293E-02  0.273425E-02  0.352505E-02
  0.460253E-02  0.595409E-02  0.741197E-02  0.841258E-02  0.806026E-02  0.593705E-02
  0.295746E-02  0.874793E-03  0.797569E-03  0.248275E-02  0.373518E-02  0.537906E-02
  0.599229E-02  0.567124E-02  0.490182E-02  0.407414E-02  0.335280E-02  0.279975E-02
  0.245371E-02  0.231806E-02  0.236348E-02  0.257498E-02  0.298185E-02  0.362882E-02
  0.453000E-02  0.566046E-02  0.693677E-02  0.807221E-02  0.841258E-02  0.722529E-02
  0.459933E-02  0.191869E-02  0.838704E-03  0.177581E-02  0.373518E-02  0.430188E-02
  0.523399E-02  0.536874E-02  0.500771E-02  0.445795E-02  0.387883E-02  0.335998E-02
  0.298311E-02  0.279198E-02  0.277158E-02  0.289051E-02  0.315531E-02  0.360787E-02
  0.427166E-02  0.511460E-02  0.605521E-02  0.693677E-02  0.741196E-02  0.693597E-02
  0.520954E-02  0.284175E-02  0.121808E-02  0.129156E-02  0.270258E-02  0.430188E-02
  0.434745E-02  0.493619E-02  0.501484E-02  0.478537E-02  0.439138E-02  0.393849E-02
  0.353733E-02  0.327082E-02  0.315606E-02  0.316699E-02  0.328969E-02  0.354517E-02
  0.395726E-02  0.450602E-02  0.511460E-02  0.566046E-02  0.595408E-02  0.570687E-02
  0.466533E-02  0.298972E-02  0.146355E-02  0.995427E-03  0.178332E-02  0.317337E-02
  0.434745E-02  0.449780E-02  0.499514E-02  0.508211E-02  0.488172E-02  0.451837E-02
  0.411789E-02  0.378133E-02  0.355436E-02  0.343623E-02  0.341602E-02  0.349552E-02
  0.368079E-02  0.395727E-02  0.427167E-02  0.453000E-02  0.460253E-02  0.433257E-02
  0.359340E-02  0.244388E-02  0.127994E-02  0.708275E-03  0.109312E-02  0.222604E-02
  0.352282E-02  0.449780E-02  0.504813E-02  0.541407E-02  0.538383E-02  0.510521E-02
  0.472304E-02  0.434066E-02  0.401027E-02  0.375267E-02  0.358001E-02  0.349787E-02
  0.349553E-02  0.354518E-02  0.360787E-02  0.362882E-02  0.352504E-02  0.319417E-02
  0.256816E-02  0.170241E-02  0.843214E-03  0.379412E-03  0.630829E-03  0.160239E-02
  0.294753E-02  0.420061E-02  0.504813E-02  0.584861E-02  0.596732E-02  0.575172E-02
  0.537415E-02  0.495205E-02  0.453651E-02  0.415040E-02  0.382276E-02  0.358002E-02
  0.341603E-02  0.328970E-02  0.315532E-02  0.298186E-02  0.273425E-02  0.235450E-02
  0.179513E-02  0.109733E-02  0.443357E-03  0.119284E-03  0.384802E-03  0.130996E-02
  0.268938E-02  0.412645E-02  0.524285E-02  0.584861E-02  0.667803E-02  0.652033E-02
  0.611908E-02  0.562582E-02  0.511678E-02  0.461693E-02  0.415040E-02  0.375267E-02
  0.343624E-02  0.316701E-02  0.289053E-02  0.257499E-02  0.221294E-02  0.178886E-02
  0.127857E-02  0.706569E-03  0.206157E-03  0.667485E-05  0.334765E-03  0.128076E-02
  0.270672E-02  0.427261E-02  0.559146E-02  0.640844E-02  0.667803E-02  0.740911E-02
  0.697589E-02  0.637419E-02  0.573485E-02  0.511677E-02  0.453651E-02  0.401026E-02
  0.355437E-02  0.315607E-02  0.277159E-02  0.236349E-02  0.192644E-02  0.146880E-02
  0.992190E-03  0.518307E-03  0.143121E-03  0.499283E-04  0.443359E-03  0.143030E-02
  0.291505E-02  0.459212E-02  0.607456E-02  0.707437E-02  0.749581E-02  0.740911E-02
  0.787150E-02  0.716223E-02  0.637419E-02  0.562582E-02  0.495204E-02  0.434065E-02
  0.378133E-02  0.327083E-02  0.279199E-02  0.231807E-02  0.183901E-02  0.136660E-02
  0.917982E-03  0.520537E-03  0.248237E-03  0.244939E-03  0.689600E-03  0.170241E-02
  0.323321E-02  0.501275E-02  0.664496E-02  0.780063E-02  0.834678E-02  0.832538E-02
  0.787150E-02  0.787150E-02  0.697589E-02  0.611908E-02  0.537415E-02  0.472303E-02
  0.411789E-02  0.353733E-02  0.298312E-02  0.245372E-02  0.194570E-02  0.146880E-02
  0.104498E-02  0.706645E-03  0.516338E-03  0.587313E-03  0.106670E-02  0.207118E-02
  0.359340E-02  0.542487E-02  0.718118E-02  0.847510E-02  0.911151E-02  0.912028E-02
  0.864799E-02  0.787150E-02  0.740911E-02  0.652033E-02  0.575172E-02  0.510520E-02
  0.451836E-02  0.393849E-02  0.335999E-02  0.279976E-02  0.227098E-02  0.178886E-02
  0.137931E-02  0.107817E-02  0.941247E-03  0.106035E-02  0.155209E-02  0.251015E-02
  0.394195E-02  0.570687E-02  0.748750E-02  0.887712E-02  0.959155E-02  0.961342E-02
  0.912028E-02  0.832538E-02  0.740911E-02  0.667803E-02  0.596732E-02  0.538384E-02
  0.488172E-02  0.439139E-02  0.387884E-02  0.335280E-02  0.283575E-02  0.235450E-02
  0.194608E-02  0.165389E-02  0.152953E-02  0.164861E-02  0.210618E-02  0.297125E-02
  0.423551E-02  0.579029E-02  0.741197E-02  0.876608E-02  0.952881E-02  0.959155E-02
  0.911150E-02  0.834678E-02  0.749580E-02  0.667803E-02  0.584861E-02  0.541407E-02
  0.508211E-02  0.478537E-02  0.445796E-02  0.407415E-02  0.364260E-02  0.319417E-02
  0.278172E-02  0.246700E-02  0.230559E-02  0.235894E-02  0.270532E-02  0.340312E-02
  0.443007E-02  0.567125E-02  0.695690E-02  0.807221E-02  0.876607E-02  0.887711E-02
  0.847510E-02  0.780062E-02  0.707437E-02  0.640844E-02  0.584861E-02  0.504813E-02
  0.499514E-02  0.501484E-02  0.500771E-02  0.490182E-02  0.467253E-02  0.433257E-02
  0.393536E-02  0.356646E-02  0.330700E-02  0.321894E-02  0.336417E-02  0.379617E-02
  0.450216E-02  0.536875E-02  0.623386E-02  0.695690E-02  0.741196E-02  0.748749E-02
  0.718118E-02  0.664496E-02  0.607456E-02  0.559146E-02  0.524285E-02  0.504813E-02
  0.449781E-02  0.493620E-02  0.536874E-02  0.567125E-02  0.579029E-02  0.570687E-02
  0.542487E-02  0.501275E-02  0.459212E-02  0.427261E-02  0.412645E-02  0.420062E-02
  0.449781E-02  0.493620E-02  0.536875E-02  0.567125E-02  0.579029E-02  0.570687E-02
  0.542487E-02  0.501274E-02  0.459211E-02  0.427260E-02  0.412645E-02  0.420061E-02
  0.449781E-02  0.434745E-02  0.523399E-02  0.599230E-02  0.656093E-02  0.693598E-02
  0.703018E-02  0.676033E-02  0.620999E-02  0.558315E-02  0.505139E-02  0.469562E-02
  0.452731E-02  0.449781E-02  0.450216E-02  0.443007E-02  0.423551E-02  0.394195E-02
  0.359340E-02  0.323321E-02  0.291504E-02  0.270671E-02  0.268938E-02  0.294753E-02
  0.352282E-02  0.434745E-02  0.430188E-02  0.537907E-02  0.631821E-02  0.722530E-02
  0.802970E-02  0.836647E-02  0.801429E-02  0.716731E-02  0.619697E-02  0.535062E-02
  0.469562E-02  0.420062E-02  0.379617E-02  0.340312E-02  0.297125E-02  0.251015E-02
  0.207118E-02  0.170241E-02  0.143029E-02  0.128075E-02  0.130996E-02  0.160239E-02
  0.222604E-02  0.317337E-02  0.430188E-02  0.373518E-02  0.475497E-02  0.593705E-02
  0.746025E-02  0.886926E-02  0.938402E-02  0.878573E-02  0.753504E-02  0.619697E-02
  0.505139E-02  0.412646E-02  0.336417E-02  0.270533E-02  0.210618E-02  0.155209E-02
  0.106670E-02  0.689599E-03  0.443357E-03  0.334763E-03  0.384801E-03  0.630828E-03
  0.109312E-02  0.178332E-02  0.270258E-02  0.373518E-02  0.248275E-02  0.349533E-02
  0.518321E-02  0.747609E-02  0.934388E-02  0.976974E-02  0.878573E-02  0.716731E-02
  0.558315E-02  0.427261E-02  0.321895E-02  0.235894E-02  0.164861E-02  0.106035E-02
  0.587314E-03  0.244939E-03  0.499282E-04  0.667472E-05  0.119284E-03  0.379413E-03
  0.708276E-03  0.995428E-03  0.129156E-02  0.177581E-02  0.248275E-02  0.126554E-02
  0.245089E-02  0.469102E-02  0.747370E-02  0.934387E-02  0.938402E-02  0.801429E-02
  0.620999E-02  0.459212E-02  0.330700E-02  0.230559E-02  0.152953E-02  0.941248E-03
  0.516339E-03  0.248237E-03  0.143122E-03  0.206158E-03  0.443359E-03  0.843217E-03
  0.127995E-02  0.146356E-02  0.121808E-02  0.838705E-03  0.797569E-03  0.126554E-02
  0.720123E-03  0.210418E-02  0.469102E-02  0.747609E-02  0.886926E-02  0.836647E-02
  0.676033E-02  0.501275E-02  0.356646E-02  0.246700E-02  0.165390E-02  0.107817E-02
  0.706646E-03  0.520537E-03  0.518308E-03  0.706571E-03  0.109733E-02  0.170241E-02
  0.244389E-02  0.298973E-02  0.284176E-02  0.191870E-02  0.874796E-03  0.401216E-03
  0.720123E-03  0.720123E-03  0.245089E-02  0.518321E-02  0.746024E-02  0.802969E-02
  0.703017E-02  0.542487E-02  0.393536E-02  0.278172E-02  0.194608E-02  0.137931E-02
  0.104498E-02  0.917982E-03  0.992191E-03  0.127857E-02  0.179514E-02  0.256816E-02
  0.359340E-02  0.466534E-02  0.520954E-02  0.459934E-02  0.295746E-02  0.126554E-02
  0.398385E-03  0.720123E-03  0.209704E-02  0.518321E-02  0.831194E-02  0.973467E-02
  0.914615E-02  0.748749E-02  0.571678E-02  0.424610E-02  0.312929E-02  0.232750E-02
  0.179466E-02  0.148429E-02  0.136835E-02  0.145011E-02  0.174611E-02  0.226737E-02
  0.301833E-02  0.394195E-02  0.475923E-02  0.493001E-02  0.407172E-02  0.248275E-02
  0.102132E-02  0.645449E-03  0.209704E-02  0.295746E-02  0.593704E-02  0.806026E-02
  0.841258E-02  0.741196E-02  0.595408E-02  0.460253E-02  0.352505E-02  0.273425E-02
  0.221294E-02  0.192643E-02  0.183901E-02  0.194569E-02  0.227098E-02  0.283575E-02
  0.364260E-02  0.467253E-02  0.579029E-02  0.656092E-02  0.631821E-02  0.475496E-02
  0.248275E-02  0.797569E-03  0.874796E-03  0.295746E-02  0.407171E-02  0.631820E-02
  0.728741E-02  0.695689E-02  0.596459E-02  0.487163E-02  0.391911E-02  0.317591E-02
  0.266741E-02  0.238714E-02  0.230060E-02  0.238714E-02  0.266741E-02  0.317591E-02
  0.391911E-02  0.487163E-02  0.596459E-02  0.695690E-02  0.728741E-02  0.631821E-02
  0.407171E-02  0.166063E-02  0.619743E-03  0.166063E-02  0.407171E-02  0.469257E-02
  0.599229E-02  0.623386E-02  0.576306E-02  0.502688E-02  0.427662E-02  0.362140E-02
  0.313186E-02  0.284310E-02  0.273787E-02  0.278182E-02  0.297558E-02  0.335563E-02
  0.394424E-02  0.471432E-02  0.559690E-02  0.645433E-02  0.695689E-02  0.656092E-02
  0.493000E-02  0.259452E-02  0.914276E-03  0.988678E-03  0.264844E-02  0.469257E-02
  0.466045E-02  0.536874E-02  0.541719E-02  0.508787E-02  0.459481E-02  0.406450E-02
  0.360251E-02  0.328822E-02  0.313905E-02  0.312495E-02  0.322403E-02  0.345387E-02
  0.384354E-02  0.438315E-02  0.500587E-02  0.559690E-02  0.596459E-02  0.579029E-02
  0.475922E-02  0.298408E-02  0.128647E-02  0.711408E-03  0.158388E-02  0.322764E-02
  0.466045E-02  0.450216E-02  0.501484E-02  0.508834E-02  0.487364E-02  0.449843E-02
  0.408527E-02  0.374181E-02  0.352290E-02  0.342564E-02  0.342651E-02  0.351920E-02
  0.371649E-02  0.401889E-02  0.438315E-02  0.471431E-02  0.487163E-02  0.467253E-02
  0.394195E-02  0.269047E-02  0.132627E-02  0.556270E-03  0.859110E-03  0.204687E-02
  0.345317E-02  0.450216E-02  0.466599E-02  0.508211E-02  0.512107E-02  0.490712E-02
  0.456990E-02  0.422093E-02  0.393131E-02  0.372889E-02  0.361513E-02  0.358230E-02
  0.362053E-02  0.371649E-02  0.384355E-02  0.394424E-02  0.391911E-02  0.364260E-02
  0.301832E-02  0.207118E-02  0.103792E-02  0.348010E-03  0.398601E-03  0.124879E-02
  0.254738E-02  0.379616E-02  0.466599E-02  0.514399E-02  0.538383E-02  0.530445E-02
  0.504647E-02  0.471936E-02  0.438665E-02  0.408469E-02  0.384287E-02  0.367880E-02
  0.358230E-02  0.351921E-02  0.345388E-02  0.335564E-02  0.317591E-02  0.283575E-02
  0.226737E-02  0.149503E-02  0.689598E-03  0.142368E-03  0.147050E-03  0.827612E-03
  0.202490E-02  0.336417E-02  0.447024E-02  0.514399E-02  0.572796E-02  0.575172E-02
  0.554523E-02  0.523187E-02  0.487484E-02  0.450098E-02  0.414301E-02  0.384287E-02
  0.361514E-02  0.342652E-02  0.322405E-02  0.297559E-02  0.266741E-02  0.227098E-02
  0.174611E-02  0.110332E-02  0.464471E-03  0.499280E-04  0.913698E-04  0.715588E-03
  0.185019E-02  0.321894E-02  0.446531E-02  0.532677E-02  0.572796E-02  0.629949E-02
  0.611908E-02  0.577945E-02  0.537535E-02  0.494310E-02  0.450098E-02  0.408469E-02
  0.372889E-02  0.342566E-02  0.312497E-02  0.278183E-02  0.238715E-02  0.194570E-02
  0.145011E-02  0.908826E-03  0.404196E-03  0.105329E-03  0.206158E-03  0.827359E-03
  0.193276E-02  0.330700E-02  0.463233E-02  0.563251E-02  0.617895E-02  0.629949E-02
  0.676607E-02  0.637418E-02  0.588263E-02  0.537535E-02  0.487483E-02  0.438664E-02
  0.393131E-02  0.352291E-02  0.313906E-02  0.273788E-02  0.230060E-02  0.183901E-02
  0.136835E-02  0.905271E-03  0.508485E-03  0.306845E-03  0.464471E-03  0.109733E-02
  0.219069E-02  0.356646E-02  0.493803E-02  0.603462E-02  0.670255E-02  0.692058E-02
  0.676607E-02  0.695608E-02  0.637418E-02  0.577944E-02  0.523186E-02  0.471935E-02
  0.422093E-02  0.374181E-02  0.328823E-02  0.284311E-02  0.238715E-02  0.192644E-02
  0.148429E-02  0.108598E-02  0.777686E-03  0.656936E-03  0.859636E-03  0.149503E-02
  0.256816E-02  0.393536E-02  0.533334E-02  0.648848E-02  0.722986E-02  0.751433E-02
  0.738702E-02  0.695608E-02  0.676607E-02  0.611908E-02  0.554523E-02  0.504646E-02
  0.456990E-02  0.408527E-02  0.360252E-02  0.313187E-02  0.266742E-02  0.221294E-02
  0.179466E-02  0.144605E-02  0.120769E-02  0.115176E-02  0.138466E-02  0.200094E-02
  0.301833E-02  0.433257E-02  0.571678E-02  0.689346E-02  0.765880E-02  0.795383E-02
  0.782919E-02  0.738702E-02  0.676607E-02  0.629949E-02  0.575172E-02  0.530445E-02
  0.490712E-02  0.449844E-02  0.406450E-02  0.362141E-02  0.317591E-02  0.273425E-02
  0.232750E-02  0.200183E-02  0.180095E-02  0.177891E-02  0.201383E-02  0.257900E-02
  0.349002E-02  0.467253E-02  0.595408E-02  0.708612E-02  0.783558E-02  0.810488E-02
  0.795383E-02  0.751432E-02  0.692057E-02  0.629949E-02  0.572796E-02  0.538384E-02
  0.512108E-02  0.487365E-02  0.459482E-02  0.427662E-02  0.391911E-02  0.352505E-02
  0.312929E-02  0.279640E-02  0.258535E-02  0.254278E-02  0.272428E-02  0.318500E-02
  0.393264E-02  0.490182E-02  0.596459E-02  0.693677E-02  0.760582E-02  0.783558E-02
  0.765879E-02  0.722985E-02  0.670254E-02  0.617895E-02  0.572796E-02  0.514399E-02
  0.508211E-02  0.508835E-02  0.508787E-02  0.502688E-02  0.487163E-02  0.460253E-02
  0.424610E-02  0.388542E-02  0.361015E-02  0.347698E-02  0.352727E-02  0.380404E-02
  0.431752E-02  0.500771E-02  0.576306E-02  0.645433E-02  0.693677E-02  0.708612E-02
  0.689345E-02  0.648848E-02  0.603462E-02  0.563250E-02  0.532677E-02  0.514399E-02
  0.466599E-02  0.501484E-02  0.541719E-02  0.576307E-02  0.596460E-02  0.595409E-02
  0.571678E-02  0.533334E-02  0.493803E-02  0.463233E-02  0.446531E-02  0.447024E-02
  0.466599E-02  0.501484E-02  0.541719E-02  0.576306E-02  0.596459E-02  0.595408E-02
  0.571678E-02  0.533333E-02  0.493802E-02  0.463232E-02  0.446530E-02  0.447024E-02
  0.466599E-02  0.450216E-02  0.536874E-02  0.623386E-02  0.695690E-02  0.741197E-02
  0.748750E-02  0.718118E-02  0.664496E-02  0.607456E-02  0.559146E-02  0.524286E-02
  0.504814E-02  0.499514E-02  0.501484E-02  0.500771E-02  0.490182E-02  0.467253E-02
  0.433257E-02  0.393536E-02  0.356646E-02  0.330699E-02  0.321894E-02  0.336417E-02
  0.379616E-02  0.450216E-02  0.466045E-02  0.599229E-02  0.728742E-02  0.841258E-02
  0.914616E-02  0.925118E-02  0.873423E-02  0.787164E-02  0.696574E-02  0.617466E-02
  0.553782E-02  0.504814E-02  0.466599E-02  0.431753E-02  0.393265E-02  0.349002E-02
  0.301832E-02  0.256816E-02  0.219069E-02  0.193276E-02  0.185018E-02  0.202490E-02
  0.254738E-02  0.345317E-02  0.466045E-02  0.469257E-02  0.631821E-02  0.806026E-02
  0.973468E-02  0.108178E-01  0.108556E-01  0.995433E-02  0.862352E-02  0.730453E-02
  0.617467E-02  0.524286E-02  0.447024E-02  0.380404E-02  0.318500E-02  0.257900E-02
  0.200094E-02  0.149503E-02  0.109733E-02  0.827357E-03  0.715586E-03  0.827611E-03
  0.124879E-02  0.204687E-02  0.322764E-02  0.469257E-02  0.407172E-02  0.593705E-02
  0.831194E-02  0.106936E-01  0.120547E-01  0.118305E-01  0.104210E-01  0.862352E-02
  0.696574E-02  0.559146E-02  0.446531E-02  0.352727E-02  0.272429E-02  0.201383E-02
  0.138466E-02  0.859637E-03  0.464471E-03  0.206157E-03  0.913690E-04  0.147049E-03
  0.398601E-03  0.859109E-03  0.158388E-02  0.264844E-02  0.407172E-02  0.295746E-02
  0.518321E-02  0.829187E-02  0.112127E-01  0.125181E-01  0.118305E-01  0.995433E-02
  0.787164E-02  0.607456E-02  0.463233E-02  0.347699E-02  0.254278E-02  0.177891E-02
  0.115176E-02  0.656936E-03  0.306846E-03  0.105329E-03  0.499286E-04  0.142369E-03
  0.348012E-03  0.556272E-03  0.711409E-03  0.988677E-03  0.166063E-02  0.295746E-02
  0.209704E-02  0.469102E-02  0.826813E-02  0.112127E-01  0.120547E-01  0.108556E-01
  0.873423E-02  0.664496E-02  0.493803E-02  0.361015E-02  0.258535E-02  0.180096E-02
  0.120769E-02  0.777687E-03  0.508486E-03  0.404197E-03  0.464472E-03  0.689601E-03
  0.103792E-02  0.132628E-02  0.128648E-02  0.914279E-03  0.619744E-03  0.874795E-03
  0.209704E-02  0.183103E-02  0.469102E-02  0.829187E-02  0.106936E-01  0.108178E-01
  0.925118E-02  0.718118E-02  0.533333E-02  0.388542E-02  0.279640E-02  0.200183E-02
  0.144605E-02  0.108598E-02  0.905271E-03  0.908828E-03  0.110333E-02  0.149504E-02
  0.207118E-02  0.269048E-02  0.298409E-02  0.259453E-02  0.166063E-02  0.797571E-03
  0.645449E-03  0.183103E-02  0.209704E-02  0.518321E-02  0.831194E-02  0.973467E-02
  0.914615E-02  0.748749E-02  0.571678E-02  0.424610E-02  0.312929E-02  0.232750E-02
  0.179466E-02  0.148429E-02  0.136835E-02  0.145011E-02  0.174611E-02  0.226737E-02
  0.301833E-02  0.394195E-02  0.475923E-02  0.493001E-02  0.407172E-02  0.248275E-02
  0.102132E-02  0.645449E-03  0.209704E-02  0.406909E-02  0.746025E-02  0.973468E-02
  0.997927E-02  0.876607E-02  0.708612E-02  0.552274E-02  0.424841E-02  0.328246E-02
  0.260621E-02  0.217175E-02  0.192637E-02  0.185345E-02  0.197207E-02  0.229621E-02
  0.281275E-02  0.349002E-02  0.423551E-02  0.477810E-02  0.469258E-02  0.373518E-02
  0.221320E-02  0.107339E-02  0.154041E-02  0.406909E-02  0.459933E-02  0.722529E-02
  0.841258E-02  0.807221E-02  0.693677E-02  0.566045E-02  0.453000E-02  0.362882E-02
  0.298186E-02  0.257499E-02  0.236349E-02  0.231806E-02  0.245372E-02  0.279976E-02
  0.335280E-02  0.407415E-02  0.490182E-02  0.567125E-02  0.599229E-02  0.537907E-02
  0.373518E-02  0.177581E-02  0.838705E-03  0.191870E-02  0.459933E-02  0.493001E-02
  0.656092E-02  0.695689E-02  0.645433E-02  0.559690E-02  0.471431E-02  0.394424E-02
  0.335564E-02  0.297559E-02  0.278182E-02  0.273787E-02  0.284310E-02  0.313187E-02
  0.362141E-02  0.427662E-02  0.502688E-02  0.576306E-02  0.623386E-02  0.599229E-02
  0.469257E-02  0.264843E-02  0.988677E-03  0.914278E-03  0.259452E-02  0.493001E-02
  0.477809E-02  0.567124E-02  0.576306E-02  0.538016E-02  0.481041E-02  0.421819E-02
  0.371010E-02  0.335507E-02  0.316448E-02  0.310767E-02  0.316448E-02  0.335507E-02
  0.371010E-02  0.421819E-02  0.481041E-02  0.538016E-02  0.576306E-02  0.567124E-02
  0.477809E-02  0.310200E-02  0.134764E-02  0.586568E-03  0.134764E-02  0.310200E-02
  0.477809E-02  0.443007E-02  0.500771E-02  0.508787E-02  0.485685E-02  0.447074E-02
  0.405848E-02  0.372286E-02  0.351330E-02  0.342291E-02  0.342583E-02  0.351809E-02
  0.372002E-02  0.403950E-02  0.443508E-02  0.481041E-02  0.502688E-02  0.490182E-02
  0.423551E-02  0.298032E-02  0.149333E-02  0.509760E-03  0.628444E-03  0.177155E-02
  0.326447E-02  0.443007E-02  0.431752E-02  0.478537E-02  0.487364E-02  0.470415E-02
  0.440774E-02  0.410087E-02  0.385901E-02  0.370766E-02  0.363993E-02  0.364300E-02
  0.371323E-02  0.385117E-02  0.403950E-02  0.421819E-02  0.427662E-02  0.407414E-02
  0.349002E-02  0.251015E-02  0.133879E-02  0.421601E-03  0.231414E-03  0.911915E-03
  0.214391E-02  0.340311E-02  0.431752E-02  0.454095E-02  0.488171E-02  0.490712E-02
  0.473858E-02  0.448735E-02  0.422977E-02  0.400929E-02  0.384912E-02  0.375595E-02
  0.371810E-02  0.371324E-02  0.372002E-02  0.371010E-02  0.362141E-02  0.335280E-02
  0.281274E-02  0.200094E-02  0.106670E-02  0.301053E-03  0.354872E-04  0.457820E-03
  0.146425E-02  0.270532E-02  0.380404E-02  0.454095E-02  0.493323E-02  0.510520E-02
  0.504647E-02  0.486262E-02  0.461923E-02  0.435325E-02  0.410102E-02  0.389886E-02
  0.375596E-02  0.364301E-02  0.351809E-02  0.335507E-02  0.313187E-02  0.279975E-02
  0.229621E-02  0.161375E-02  0.859636E-03  0.244938E-03  0.112348E-04  0.326914E-03
  0.118271E-02  0.235893E-02  0.352727E-02  0.442063E-02  0.493323E-02  0.535906E-02